# vtk DataFile Version 3.0
example test vtk file
ASCII
DATASET STRUCTURED_POINTS
DIMENSIONS 32 32 1
SPACING 0.0125 0.0125 1
ORIGIN 0 0 0
POINT_DATA 1024
SCALARS pressure float1
LOOKUP_TABLE default
0.000464531128942 0.000465901873865 0.000475617021213 0.000496624470275 0.000522947693177 0.00056110245816 0.000600839749267 0.000651052179315 0.000698582261485 0.000753264766728 0.000800985510572 0.000851288251222 0.000891219170808 0.000929144545294 0.000954920156164 0.000974686657312 0.000982575102975 0.000981201607878 0.000970232151323 0.000947889040011 0.000919742999183 0.000879769937318 0.000838702248289 0.000787247030513 0.000739725751364 0.00068504608749 0.000638667940276 0.000589611924648 0.000551503502117 0.000515396345937 0.00049086283401 0.000472428060469 
3.71881384437e-06 3.71517266905e-06 3.78109031431e-06 3.93043883905e-06 4.12513140046e-06 4.40994623284e-06 4.71004999267e-06 5.09388017979e-06 5.45827047431e-06 5.88583033841e-06 6.25833722919e-06 6.66286325347e-06 6.98270407053e-06 7.29967715413e-06 7.51524166204e-06 7.69349344487e-06 7.77120405123e-06 7.78073149263e-06 7.70858151231e-06 7.54657926393e-06 7.33524053482e-06 7.02727393138e-06 6.70978886119e-06 6.3056556112e-06 5.9336655646e-06 5.49998131619e-06 5.13413595989e-06 4.74145195267e-06 4.43830590815e-06 4.14471579114e-06 3.94610078495e-06 3.78897329745e-06 
-0.000464296062961 -0.00046565860763 -0.000475371342612 -0.000496379811229 -0.000522712174586 -0.000560879439156 -0.000600639607851 -0.000650878045608 -0.000698445302297 -0.000753166616231 -0.000800934990821 -0.000851283532671 -0.000891263313809 -0.00092923126298 -0.000955045328673 -0.000974840527286 -0.000982747525251 -0.000981381857702 -0.000970406968483 -0.000948049786909 -0.000919876813388 -0.000879872767309 -0.000838764563151 -0.00078727022577 -0.000739704962975 -0.000684986878676 -0.0006385694724 -0.000589481316566 -0.000551342261924 -0.000515210994064 -0.000490656147866 -0.000472205180029 
-0.000906540552226 -0.000909361359914 -0.0009292215172 -0.000972324003409 -0.00102637043836 -0.00110493462122 -0.00118692278671 -0.00129075684798 -0.00138926412786 -0.00150263333258 -0.00160171163338 -0.00170592663388 -0.00178867628794 -0.00186711934745 -0.00192034398759 -0.00196120398396 -0.00197740170192 -0.00197456671574 -0.00195185903945 -0.00190566325418 -0.00184744366277 -0.00176472443498 -0.00167965628865 -0.00157301388052 -0.00147452961484 -0.00136117535208 -0.00126520919896 -0.00116382300305 -0.00108524596048 -0.00101095723623 -0.000960547940376 -0.000922760759768 
-0.0013556880397 -0.00135995151005 -0.00139009493953 -0.0014556075974 -0.00153778896163 -0.00165736774113 -0.00178224796656 -0.00194052716057 -0.00209079872255 -0.00226377968986 -0.00241502621559 -0.00257403245423 -0.00270029820026 -0.00281994965031 -0.00290109295567 -0.00296343662271 -0.00298811315843 -0.00298383908052 -0.00294923692475 -0.00287883627407 -0.00279008329088 -0.00266394752979 -0.00253418701291 -0.0023714778051 -0.00222122155968 -0.00204825168135 -0.0019019070989 -0.0017473461575 -0.00162765189012 -0.00151455697674 -0.00143785074885 -0.00138037979458 
-0.00174011186061 -0.00174607619044 -0.00178775708514 -0.00187893250791 -0.00199346618042 -0.00216107301515 -0.00233677392692 -0.00256056219793 -0.00277389023799 -0.00301974574531 -0.00323517384922 -0.00346062471919 -0.0036396383999 -0.00380865066465 -0.00392281566274 -0.00401082450807 -0.0040451754172 -0.00403918089089 -0.00399030077307 -0.00389091128836 -0.00376559923102 -0.00358725448141 -0.00340336999657 -0.00317247093601 -0.00295919665087 -0.00271337414738 -0.00250620387407 -0.00228790775101 -0.00211967002651 -0.00196139313441 -0.00185435311158 -0.00177451416748 
-0.00213051094304 -0.00213816062013 -0.00219153254539 -0.00230873353551 -0.00245610448459 -0.00267246227229 -0.00289977190399 -0.0031900920616 -0.00346748529635 -0.00378740261605 -0.00406808237494 -0.00436112499938 -0.0045938165776 -0.00481310263139 -0.0049609178137 -0.00507511864488 -0.00511937596055 -0.00511170239932 -0.00504834594356 -0.004919511753 -0.00475703722759 -0.00452560996366 -0.00428668701232 -0.00398645134554 -0.00370909718359 -0.00338920552979 -0.00312019400424 -0.00283710156786 -0.00261951254703 -0.00241529432717 -0.00227740886117 -0.00217480648374 
-0.00241179754788 -0.00242149762212 -0.00248823019514 -0.00263625924969 -0.00282296713111 -0.00309986830511 -0.00339282384407 -0.00377068206361 -0.00413435891916 -0.0045551728087 -0.00492546455637 -0.00530818392622 -0.00561189416195 -0.00589603864149 -0.00608610780705 -0.00623426426578 -0.00629018466947 -0.0062804222851 -0.00619857141978 -0.00603154985451 -0.00582128748492 -0.00552091804639 -0.00520903621098 -0.00481625077759 -0.00445269310421 -0.00403195216209 -0.00368074813159 -0.00331304764994 -0.00303288233623 -0.00277219690623 -0.00259708479537 -0.0024678278485 
-0.00269741554873 -0.00270915221173 -0.00278942154561 -0.00296870631269 -0.00319532851442 -0.00353366134597 -0.00389325715499 -0.00435998498192 -0.00481129795153 -0.00533462369771 -0.00579601076607 -0.00626997035926 -0.00664597434083 -0.00699622196694 -0.00722938903187 -0.00741223511813 -0.00748012854703 -0.00746834183006 -0.00736773608662 -0.00716190200306 -0.00690303782368 -0.00653253604802 -0.00614643496603 -0.00565952151668 -0.00520829601897 -0.00468502701352 -0.00425026760011 -0.00379656714353 -0.00345280065207 -0.0031347159531 -0.00292176363544 -0.00276539278744 
-0.00282176495045 -0.00283582884318 -0.00293040107171 -0.00314474144 -0.00341735237055 -0.00383146442896 -0.00427720252074 -0.00486713350316 -0.00544526656808 -0.00612208925713 -0.0067204404434 -0.00732090744765 -0.00779637226814 -0.00823306057025 -0.008519540304 -0.00874977426335 -0.00883088618217 -0.00881669636332 -0.0086925156122 -0.00843395171748 -0.00811194835041 -0.00764862383841 -0.00715880241388 -0.00653967114164 -0.00596180101274 -0.00528514530165 -0.00473122139973 -0.00416014051868 -0.0037340315801 -0.00334652277287 -0.00308930885689 -0.00290310463296 
-0.0029479680388 -0.00296435112253 -0.00307341190846 -0.00332328117669 -0.00364253490398 -0.00413349713759 -0.00466663700619 -0.00538157092744 -0.00608844763562 -0.00692114611745 -0.00765869709024 -0.00838791830437 -0.00896468714674 -0.0094895846092 -0.00983053921357 -0.0101092610718 -0.0102040157762 -0.0101875305479 -0.0100394352937 -0.00972722251302 -0.00934094826148 -0.0087831172236 -0.00818772673717 -0.00743408031013 -0.00672739338235 -0.00589482258467 -0.00521978746346 -0.00452943043942 -0.00401966383649 -0.00356161333994 -0.00325943232647 -0.00304289873598 
-0.00285555457766 -0.00287397395147 -0.00299425929445 -0.00327541627933 -0.00363884258958 -0.00421411935082 -0.00485337341326 -0.00574430558726 -0.00664907260126 -0.00774515171897 -0.00871466626001 -0.00962030285405 -0.01033361982 -0.0109655265564 -0.0113647988164 -0.0117150792069 -0.0118213072691 -0.0118026403913 -0.0116286600707 -0.0112389410165 -0.0107751928966 -0.0100999604232 -0.00935243102893 -0.00840867238697 -0.00750449527849 -0.00640882524765 -0.00554831185099 -0.00469585214842 -0.00408271835381 -0.00355065266937 -0.00320435701125 -0.00296224151671 
-0.00276161477693 -0.00278207478481 -0.00291372570616 -0.00322657300403 -0.00363476555988 -0.00429547920431 -0.00504231336257 -0.00611166148959 -0.00721716528859 -0.00858047855584 -0.00978564928118 -0.0108709776971 -0.0117235426565 -0.0124649411586 -0.0129240685732 -0.0133476974931 -0.0134659634959 -0.0134453002981 -0.0132450447578 -0.0127763442987 -0.0122335976008 -0.011438634993 -0.0105361359412 -0.00939886610834 -0.00829376992553 -0.00693075901316 -0.00588183074993 -0.00486472347452 -0.00414663882585 -0.003539411476 -0.0031483365852 -0.00288024021184 
-0.00240183944085 -0.00242241155741 -0.00255224134175 -0.0028688328343 -0.00329038787954 -0.00400529401229 -0.00484837933772 -0.00615082178489 -0.00758298871972 -0.00949391388783 -0.0111555364014 -0.0124496292929 -0.0134586451422 -0.0142936666597 -0.0147847310243 -0.0153423789697 -0.0154608875701 -0.0154398486177 -0.0152256280962 -0.0146192150336 -0.0140077354807 -0.0131036078031 -0.0119712370215 -0.0105862365097 -0.00915544142626 -0.00724563537397 -0.00587481617174 -0.00466379340985 -0.00384417579699 -0.00319799679683 -0.00278984869867 -0.0025212372109 
-0.00203643094128 -0.0020571369577 -0.00218511259369 -0.00250545860884 -0.00294048969496 -0.00371018632393 -0.00465068655079 -0.00618911818499 -0.00795225185834 -0.0104181298916 -0.0125431927351 -0.0140505733475 -0.0152197665491 -0.0161515063283 -0.0166762311153 -0.0173712903269 -0.0174907282744 -0.0174696323268 -0.0172411857607 -0.0164942218899 -0.0158122630695 -0.0147962131954 -0.0134294497666 -0.0117919901088 -0.0100297200071 -0.0075646246263 -0.00586712766761 -0.00445929394402 -0.00353672533102 -0.00285107037596 -0.0024256622299 -0.00215657790484 
-0.00140971488888 -0.00142560395642 -0.00152248015346 -0.0017722102609 -0.00212208810144 -0.00278740084732 -0.00366676492491 -0.00535977010354 -0.00767896203284 -0.0116300477816 -0.0148658406936 -0.0163906300707 -0.0175606911209 -0.0184171311405 -0.0188545933199 -0.0199209234214 -0.0200118868081 -0.0199951630701 -0.0198052315103 -0.0186944636429 -0.0180588830731 -0.0171090165574 -0.0153693357886 -0.0135870248821 -0.011271211692 -0.00732368177078 -0.00495133234131 -0.00351568717093 -0.00262931897711 -0.00205630396059 -0.00170902346842 -0.00150230046575 
-0.000773335348551 -0.000784437681173 -0.000849804662051 -0.001027937721 -0.00129139199868 -0.00185068504387 -0.00266768428844 -0.00451647015534 -0.00739786888939 -0.0128520533453 -0.017214609666 -0.0187610940874 -0.0199354346605 -0.0207184918795 -0.0210695824801 -0.0225153985757 -0.02257857721 -0.0225667465764 -0.0224157384189 -0.0209338539787 -0.0203440061791 -0.0194592374161 -0.0173390374391 -0.0154076883124 -0.0125281145942 -0.0070763289224 -0.00402022524761 -0.00255675093652 -0.00170746883502 -0.00124899648391 -0.000981155886046 -0.000837864850992 
-5.51707843635e-06 -5.49407628752e-06 -5.87609397557e-06 -7.00169532104e-06 -8.71525870293e-06 -1.23212783275e-05 -1.76175404034e-05 -2.93861908603e-05 -4.79879216849e-05 -8.37109807285e-05 -0.000117121380697 -0.0001361290629 -0.000151503210868 -0.000164276792911 -0.00017197384052 -0.000188467542315 -0.000191732311772 -0.000193034434276 -0.000191717849102 -0.000177458777704 -0.000170116330667 -0.000158893528969 -0.000138507884093 -0.00011954238937 -9.3652239693e-05 -5.1991915065e-05 -2.9964994287e-05 -1.89580308506e-05 -1.27373416266e-05 -9.22779429331e-06 -7.2099601697e-06 -6.05675057106e-06 
0.000774049985869 0.000785188760394 0.000850622136441 0.00102883322109 0.00129241669539 0.00185186518678 0.00266913129826 0.00451825984342 0.00740009198515 0.0128542796738 0.0172156344286 0.0187609809483 0.0199346009384 0.0207171655008 0.0210679680253 0.0225136035407 0.0225766400025 0.0225647790693 0.0224138417022 0.0209321011305 0.0203425445076 0.0194582743055 0.0173386694368 0.0154078108966 0.0125291854258 0.00707777206731 0.00402132286211 0.00255763300756 0.00170824116236 0.00124970551885 0.000981845182676 0.000838553262085 
0.0014007327851 0.00141668635018 0.00151320949002 0.0017620225767 0.00211072852617 0.00277451836441 0.00365282703106 0.00534724694913 0.0076728076649 0.0116417444854 0.014892762722 0.0164210600865 0.017593978958 0.0184519394069 0.0188900357111 0.0199644270464 0.0200559630864 0.0200397340332 0.0198502708218 0.0187323034514 0.0180963174137 0.0171457326055 0.0153989008958 0.0136127720059 0.0112873836846 0.00731828746991 0.0049368666431 0.00350109889391 0.00261555773961 0.00204441446877 0.00169844122687 0.00149279640966 
0.00203706805021 0.00205780643356 0.00218582793223 0.00250622050787 0.00294131331265 0.00371106762345 0.00465162806476 0.00619008969126 0.00795316219327 0.010418827623 0.0125433382087 0.0140501965316 0.0152189129289 0.0161502698072 0.0166747139445 0.0173695512546 0.0174888698281 0.0174677393867 0.017239348154 0.0164925406247 0.0158108154533 0.0147950703787 0.0134287186282 0.0117916056335 0.0100297966562 0.00756501271594 0.00586761075058 0.00445982952744 0.00353727875237 0.0028516393383 0.00242624873883 0.00215718471191 
0.0023967971436 0.00241742023314 0.0025472535191 0.00286389009628 0.00328559892898 0.00400113636147 0.00484540821329 0.00615073937048 0.00758712069275 0.00950519058491 0.0111733776188 0.0124715961248 0.0134839587628 0.0143217657246 0.0148143169917 0.0153751662707 0.0154942598551 0.0154735080059 0.015259071292 0.0146499497252 0.014036915126 0.0131302711945 0.0119937085765 0.0106042591945 0.00916804632221 0.00725000876769 0.00587451782339 0.00466066874246 0.00383967044936 0.00319299571647 0.00278468667291 0.00251614207797 
0.00276214459165 0.00278263088207 0.00291430815962 0.00322717621876 0.00363538438604 0.00429610227997 0.00504291698728 0.0061122200658 0.00721761054585 0.00858076428641 0.00978565876413 0.0108707189756 0.0117230060679 0.0124641700721 0.0129231065031 0.0133465916589 0.013464775266 0.0134440845648 0.0132438647064 0.0127752532645 0.012232655556 0.0114378698718 0.010535606407 0.00939854539407 0.00829369124565 0.00693086279677 0.00588206011931 0.00486504359746 0.00414702079763 0.00353984088794 0.00314880407506 0.00288073953368 
0.00285451404551 0.00287296091297 0.00299340756502 0.00327498127877 0.00363900699507 0.00421540106291 0.00485609183411 0.00574939126772 0.00665689816617 0.0077566910051 0.00872967533209 0.00963837337857 0.0103541648423 0.0109883624951 0.0113890132818 0.0117409624526 0.0118476852733 0.0118291791246 0.0116548371936 0.0112637157495 0.0107985648716 0.0101211472532 0.009370978465 0.00842399297596 0.00751658428247 0.00641682839579 0.00555349511677 0.00469857673394 0.00408392259214 0.00355075878169 0.00320383769966 0.00296135486003 
0.00294839605029 0.00296479934434 0.00307387404025 0.00332375006849 0.00364299868314 0.004133945641 0.00466704612724 0.00538192562182 0.00608870589355 0.00692129196424 0.00765868137309 0.00838774578872 0.00896434617989 0.00948909901723 0.00982992891131 0.0101085580072 0.010203256706 0.0101867505429 0.0100386768176 0.00972651589837 0.00934033472968 0.00878261071044 0.00818736159131 0.00743384522479 0.00672730388313 0.00589485133617 0.00521991922768 0.00452964219569 0.00401994049883 0.00356194051829 0.00325980090926 0.00304329988322 
0.00282401145328 0.0028380849712 0.00293285348802 0.00314767098414 0.00342092773524 0.00383609348286 0.00428305196219 0.00487473128386 0.00545470204856 0.00613380590841 0.00673425801193 0.00733684150874 0.00781400970537 0.00825234595869 0.00853988319849 0.00877113868418 0.00885262722673 0.00883852667775 0.00871402384761 0.00845458376716 0.00813152599252 0.00766660672965 0.00717505400314 0.00655373488386 0.00597381486961 0.00529473266928 0.00473895356622 0.00416604907331 0.00373868524618 0.00335010587582 0.00309222539896 0.0029055554311 
0.00269776225345 0.00270951412954 0.00278979076909 0.00296907639681 0.00319568718536 0.00353400109398 0.00389355872797 0.00436023978745 0.00481147986509 0.0053347264061 0.00579600936694 0.00626986863771 0.00664576443525 0.00699591865696 0.00722900286834 0.00741178741232 0.00747964235331 0.0074678401591 0.007367247509 0.00716144537729 0.00690264109409 0.00653220769908 0.00614619681554 0.00565936846186 0.00520823812776 0.00468504982006 0.00425036764669 0.00379672931061 0.00345301769549 0.00313497619737 0.00292206038876 0.00276571766266 
0.00241645057573 0.00242615022763 0.00249306463211 0.00264152119631 0.00282879481217 0.00310656601506 0.00340048056877 0.00377962776252 0.00414459262189 0.00456695233873 0.00493863806198 0.00532283485412 0.00562772781989 0.00591303700335 0.00610387899285 0.00625271636901 0.00630891340086 0.00629920188992 0.0062171014984 0.00604948201983 0.00583845675863 0.00553695577713 0.00522389064501 0.00482960039254 0.00446466042999 0.0040423112302 0.00368981263974 0.00332077563286 0.00303963506749 0.00277805670106 0.0026023643025 0.00247267351725 
0.00213079974167 0.00213846101246 0.00219183713127 0.00230903717128 0.00245639648376 0.00267273727731 0.00290001513637 0.00319029822529 0.00346763690461 0.00378749662409 0.00406810386568 0.00436107690786 0.00459369379058 0.00481291515509 0.0049606722405 0.00507482985161 0.00511905957809 0.00511137449814 0.00504802660504 0.00491921391463 0.00475678054946 0.00452540037294 0.00428653946314 0.00398636319465 0.00370907576529 0.0033892419139 0.0031202880787 0.00283724276564 0.0026196972651 0.0024155134511 0.00227765773767 0.00217507807486 
0.00174636018542 0.00175231944687 0.00179415740581 0.00188569448044 0.00200070206808 0.00216901596561 0.00234547573742 0.0025702529782 0.002784540593 0.00303153159061 0.00324796529216 0.00347450131881 0.00365437872439 0.0038242464107 0.00393898824764 0.00402748534454 0.00406204365309 0.00405608020813 0.00400700924204 0.0039071830311 0.00378130409527 0.00360212780076 0.00341738388844 0.0031853911188 0.00297111446626 0.00272412728727 0.00251599341146 0.00229667875065 0.00212767276447 0.00196866781188 0.00186114329525 0.00178092959056 
0.0013559404872 0.0013602132586 0.0013903595628 0.00145587105993 0.00153804220941 0.00165760677507 0.00178246097597 0.00194071040351 0.00209093915034 0.00226387534935 0.00241506657456 0.00257401973857 0.00270022875075 0.00281983090039 0.00290092972955 0.00296324024574 0.00298789541611 0.00298361231644 0.00294901649331 0.00287863209574 0.00278991033383 0.00266381041646 0.00253409695171 0.00237143309072 0.00222122787178 0.00204830252227 0.00190200317763 0.00174747931879 0.00162782007331 0.00151475280818 0.00143807085404 0.00138061835581 
0.000913688477091 0.000916502435501 0.000936501065672 0.000979918561739 0.00103437610474 0.0011135444866 0.00119617212375 0.00130082760212 0.00140011893264 0.00151440994693 0.00161429482536 0.00171938487593 0.00180282771426 0.00188195786342 0.00193564896043 0.0019768967434 0.00199326252931 0.00199044931908 0.00196758587234 0.00192103910608 0.00186236196728 0.00177897503638 0.00169321847991 0.00158569987931 0.00148641040544 0.0013721184857 0.00127536512687 0.00117313707103 0.00109391377243 0.00101900233409 0.000968173439418 0.000930056081964 
