# vtk DataFile Version 3.0
example test vtk file
ASCII
DATASET STRUCTURED_POINTS
DIMENSIONS 32 32 1
SPACING 0.0125 0.0125 1
ORIGIN 0 0 0
POINT_DATA 1024
SCALARS pressure float1
LOOKUP_TABLE default
5.04019665043e-07 5.0816350317e-07 5.19824400956e-07 5.44749055715e-07 5.7246702831e-07 6.15263540047e-07 6.55026063208e-07 7.09768593923e-07 7.5567728001e-07 8.13577509538e-07 8.58774589989e-07 9.09800628518e-07 9.47645784511e-07 9.83361600349e-07 1.00830337402e-06 1.02377663259e-06 1.03191416983e-06 1.02581725734e-06 1.01549408625e-06 9.89231704791e-07 9.61513732197e-07 9.18717220459e-07 8.77616970602e-07 8.24212166583e-07 7.76350406125e-07 7.20403250969e-07 6.73774311471e-07 6.24180131988e-07 5.86334975995e-07 5.50619160158e-07 5.27109245528e-07 5.10204127913e-07 
-9.88592171888e-07 -9.97013917695e-07 -1.02122985619e-06 -1.07253364554e-06 -1.12997585285e-06 -1.21853179532e-06 -1.30100603546e-06 -1.41488525698e-06 -1.51013151343e-06 -1.63094791739e-06 -1.72466223771e-06 -1.83093233061e-06 -1.90939837153e-06 -1.98329617049e-06 -2.0351301449e-06 -2.06674046894e-06 -2.08384377937e-06 -2.07094760332e-06 -2.04976830773e-06 -1.99542787548e-06 -1.93798566817e-06 -1.84942972569e-06 -1.76391884264e-06 -1.65307626403e-06 -1.55335557734e-06 -1.43701360362e-06 -1.33998024335e-06 -1.2370291904e-06 -1.15856314949e-06 -1.08466535052e-06 -1.03615041606e-06 -1.00122105208e-06 
-5.04019665043e-07 -5.0816350317e-07 -5.19824400956e-07 -5.44749055715e-07 -5.7246702831e-07 -6.15263540047e-07 -6.55026063208e-07 -7.09768593923e-07 -7.5567728001e-07 -8.13577509538e-07 -8.58774589989e-07 -9.09800628518e-07 -9.47645784511e-07 -9.83361600349e-07 -1.00830337402e-06 -1.02377663259e-06 -1.03191416983e-06 -1.02581725734e-06 -1.01549408625e-06 -9.89231704791e-07 -9.61513732197e-07 -9.18717220459e-07 -8.77616970602e-07 -8.24212166583e-07 -7.76350406125e-07 -7.20403250969e-07 -6.73774311471e-07 -6.24180131988e-07 -5.86334975995e-07 -5.50619160158e-07 -5.27109245528e-07 -5.10204127913e-07 
-1.8969884153e-06 -1.91430097317e-06 -1.96635140003e-06 -2.07458886913e-06 -2.19766751973e-06 -2.38670827877e-06 -2.56391677557e-06 -2.8100613152e-06 -3.01485778056e-06 -3.27797408198e-06 -3.47911906587e-06 -3.70948523456e-06 -3.8778011035e-06 -4.03551188241e-06 -4.14727842871e-06 -4.21271810194e-06 -4.25047666484e-06 -4.22162206886e-06 -4.17724378337e-06 -4.0613341729e-06 -3.93825552229e-06 -3.74921476325e-06 -3.56433412507e-06 -3.32586172683e-06 -3.10952322336e-06 -2.85794896005e-06 -2.64800224659e-06 -2.42643780746e-06 -2.25812193853e-06 -2.10041115961e-06 -1.99744634288e-06 -1.92320494008e-06 
-1.47316467873e-06 -1.48586433222e-06 -1.52263531143e-06 -1.60031823536e-06 -1.68748467738e-06 -1.8218000506e-06 -1.94698600772e-06 -2.12000192003e-06 -2.26458574685e-06 -2.44831832525e-06 -2.59054988543e-06 -2.75206403271e-06 -2.87115095854e-06 -2.98323074063e-06 -3.06195691578e-06 -3.10970430528e-06 -3.1357733889e-06 -3.1160779493e-06 -3.0840425292e-06 -3.00162404616e-06 -2.91445760413e-06 -2.78014223092e-06 -2.65022071469e-06 -2.48194036149e-06 -2.33036074855e-06 -2.15362395627e-06 -2.00618617524e-06 -1.84987824881e-06 -1.73079132298e-06 -1.61871154089e-06 -1.5451915866e-06 -1.49223797624e-06 
-2.63556374638e-06 -2.66239616577e-06 -2.74951980892e-06 -2.92481257904e-06 -3.13042605048e-06 -3.44365113545e-06 -3.74213576653e-06 -4.16067764306e-06 -4.50626376736e-06 -4.96140186076e-06 -5.29915514172e-06 -5.69352264326e-06 -5.97540854788e-06 -6.23654802265e-06 -6.42570580161e-06 -6.52699798756e-06 -6.5935406679e-06 -6.54148839727e-06 -6.47047463862e-06 -6.279071984e-06 -6.07345851256e-06 -5.76023342759e-06 -5.445638912e-06 -5.04320691998e-06 -4.67240094444e-06 -4.24248270227e-06 -3.88438358111e-06 -3.51036191978e-06 -3.22847601516e-06 -2.96733654039e-06 -2.79852460164e-06 -2.67688657548e-06 
-2.32081215186e-06 -2.34273761412e-06 -2.41006748864e-06 -2.5488595029e-06 -2.70785036208e-06 -2.95161650695e-06 -3.18084754343e-06 -3.50012071036e-06 -3.76512981426e-06 -4.10762983871e-06 -4.36768824632e-06 -4.66690643642e-06 -4.88445124845e-06 -5.08779302419e-06 -5.23259994165e-06 -5.3157318986e-06 -5.36517994078e-06 -5.32716618842e-06 -5.27044503754e-06 -5.12104429963e-06 -4.96205344045e-06 -4.71828729558e-06 -4.47844753546e-06 -4.16978309217e-06 -3.88868569816e-06 -3.56227396382e-06 -3.28981831794e-06 -3.00299736611e-06 -2.78545255408e-06 -2.58211077834e-06 -2.44970109916e-06 -2.35417190393e-06 
-3.09722215967e-06 -3.13358453538e-06 -3.26573803878e-06 -3.51861414581e-06 -3.83238110673e-06 -4.30240604093e-06 -4.76793647273e-06 -5.42759626081e-06 -5.96890638062e-06 -6.71343307477e-06 -7.23582918578e-06 -7.86665545504e-06 -8.29897214467e-06 -8.69015957737e-06 -8.98659556196e-06 -9.11723742838e-06 -9.22750556654e-06 -9.13826154867e-06 -9.03765559066e-06 -8.75323193824e-06 -8.43946497732e-06 -7.96944004313e-06 -7.47236206594e-06 -6.84424982324e-06 -6.25005806127e-06 -5.55841300928e-06 -4.98865511824e-06 -4.40519062901e-06 -3.97287393938e-06 -3.58168650668e-06 -3.33261230212e-06 -3.15460865567e-06 
-2.9503153409e-06 -2.98205471741e-06 -3.08897212919e-06 -3.30076565518e-06 -3.55300173888e-06 -3.93568576395e-06 -4.30342398964e-06 -4.82123457575e-06 -5.24739772045e-06 -5.81517388282e-06 -6.23062203713e-06 -6.72013885009e-06 -7.0663658473e-06 -7.38530302111e-06 -7.61881166158e-06 -7.73826407652e-06 -7.82190139503e-06 -7.75581060613e-06 -7.67050423971e-06 -7.43709966837e-06 -7.18486358467e-06 -6.8021795596e-06 -6.41283028854e-06 -5.91663074779e-06 -5.45611619071e-06 -4.92269144073e-06 -4.47894884427e-06 -4.01772647346e-06 -3.67149947624e-06 -3.35256230244e-06 -3.14734810411e-06 -2.99960124702e-06 
-3.15497455139e-06 -3.19871917427e-06 -3.38382907979e-06 -3.7136534279e-06 -4.16542386493e-06 -4.81976262163e-06 -5.52832263703e-06 -6.53386828451e-06 -7.36559609661e-06 -8.59807872245e-06 -9.37628307611e-06 -1.03695065248e-05 -1.09980552831e-05 -1.15401974034e-05 -1.1994198735e-05 -1.21135305999e-05 -1.22922304457e-05 -1.21410884308e-05 -1.20131771801e-05 -1.16261541772e-05 -1.11743837401e-05 -1.05200449834e-05 -9.75428631316e-06 -8.80593932056e-06 -7.86681411647e-06 -6.74172888261e-06 -5.84730489121e-06 -4.97030108029e-06 -4.34175232198e-06 -3.79961020166e-06 -3.46182850782e-06 -3.22627700514e-06 
-3.24412897844e-06 -3.28511435334e-06 -3.44250394836e-06 -3.73646263645e-06 -4.11176047458e-06 -4.6691263179e-06 -5.23244895581e-06 -6.03395794588e-06 -6.69041504078e-06 -7.61169226672e-06 -8.24103633444e-06 -9.01317206e-06 -9.53157844205e-06 -9.99501613363e-06 -1.03543794623e-05 -1.04962107802e-05 -1.06331097381e-05 -1.05207124912e-05 -1.04048069416e-05 -1.00693642081e-05 -9.69406636997e-06 -9.13670052665e-06 -8.53189384334e-06 -7.77186889868e-06 -7.04399993184e-06 -6.19413457784e-06 -5.49836139221e-06 -4.79265478456e-06 -4.27424840251e-06 -3.81081071092e-06 -3.51787650014e-06 -3.30961606431e-06 
-2.67701845829e-06 -2.72136172866e-06 -2.94917986406e-06 -3.3175177699e-06 -3.91716263619e-06 -4.72912273318e-06 -5.81433411385e-06 -7.29003553314e-06 -8.58887229266e-06 -1.07755070057e-05 -1.1905651739e-05 -1.34730945182e-05 -1.43227671766e-05 -1.49875929116e-05 -1.56999136493e-05 -1.56555991371e-05 -1.5934040301e-05 -1.56864073974e-05 -1.55484389441e-05 -1.50902513562e-05 -1.44906064899e-05 -1.36786463929e-05 -1.25035853301e-05 -1.11177335929e-05 -9.61560720024e-06 -7.63226212033e-06 -6.19199800815e-06 -4.93467460787e-06 -4.08500194951e-06 -3.42017621452e-06 -3.01797485577e-06 -2.75216998896e-06 
-3.06582012435e-06 -3.1123239952e-06 -3.32515421122e-06 -3.69084421936e-06 -4.21908725529e-06 -4.97039892535e-06 -5.82419631824e-06 -7.03377862314e-06 -8.04077715243e-06 -9.58446517818e-06 -1.05115298178e-05 -1.17258409896e-05 -1.24645321241e-05 -1.30853786732e-05 -1.36340180076e-05 -1.37308504196e-05 -1.39513511533e-05 -1.37614643704e-05 -1.36215474187e-05 -1.31829441462e-05 -1.26547011103e-05 -1.19033894402e-05 -1.0976678783e-05 -9.84000974243e-06 -8.6896283011e-06 -7.28932318739e-06 -6.19624839021e-06 -5.14794737601e-06 -4.40925624145e-06 -3.78840969239e-06 -3.40578051549e-06 -3.14293794596e-06 
-1.58594456193e-06 -1.61703998151e-06 -1.81870928198e-06 -2.10593318986e-06 -2.73971270192e-06 -3.48917500804e-06 -5.2229788895e-06 -7.12164410912e-06 -9.26990722123e-06 -1.37408192492e-05 -1.53346844106e-05 -1.77597716308e-05 -1.86874480349e-05 -1.92814805875e-05 -2.05486483845e-05 -1.98348656396e-05 -2.01955781648e-05 -1.98586906656e-05 -1.97559318055e-05 -1.93697974572e-05 -1.87360179452e-05 -1.79865556391e-05 -1.61538413172e-05 -1.4354086538e-05 -1.19000313462e-05 -7.7349113979e-06 -5.22007799163e-06 -3.71595901634e-06 -2.78828261215e-06 -2.19425005959e-06 -1.84805050746e-06 -1.64086500751e-06 
-2.28821679223e-06 -2.33039946212e-06 -2.5732055169e-06 -2.94419132044e-06 -3.61523801709e-06 -4.487846541e-06 -5.80447190945e-06 -7.54629244314e-06 -9.1369674329e-06 -1.19665488333e-05 -1.32997736602e-05 -1.52203480469e-05 -1.6181002229e-05 -1.68898071499e-05 -1.77658092909e-05 -1.75803478546e-05 -1.79167294487e-05 -1.76113504245e-05 -1.74753304696e-05 -1.69975585661e-05 -1.63265118695e-05 -1.54539033456e-05 -1.40304918772e-05 -1.23954574434e-05 -1.05415860994e-05 -7.97520105327e-06 -6.18774762609e-06 -4.72140183972e-06 -3.76074765758e-06 -3.05194273665e-06 -2.63016919605e-06 -2.36140203195e-06 
-7.66165182056e-22 -1.06526017606e-21 -1.09734591866e-21 -1.0892839847e-21 -9.67446573788e-22 -1.29994452045e-21 -2.17810145074e-22 5.81522590838e-22 1.8186413803e-21 6.27012282982e-21 5.6459235338e-21 5.35407150824e-21 7.53774957211e-21 7.47872425357e-21 8.68524101393e-21 8.82823010331e-21 8.03812729627e-21 6.87407758627e-21 6.78924708385e-21 7.48094980257e-21 8.25914703236e-21 5.88620530827e-21 6.21265421385e-21 5.42159627015e-21 4.05715206138e-21 9.0661976062e-22 -1.75090385896e-22 -1.0847634901e-21 -1.15328744047e-21 -2.04675632485e-21 -1.19832736439e-21 -9.13824979265e-22 
-8.83672331634e-07 -9.03680500896e-07 -1.06421304706e-06 -1.26767505928e-06 -1.86418738674e-06 -2.49050347508e-06 -4.64148586955e-06 -6.6969957751e-06 -9.40284700956e-06 -1.55150896651e-05 -1.7369595161e-05 -2.02991952146e-05 -2.11938938409e-05 -2.16731540251e-05 -2.33314874782e-05 -2.20893834245e-05 -2.24744268809e-05 -2.21060309067e-05 -2.20365331415e-05 -2.17420363483e-05 -2.11455240209e-05 -2.05192079325e-05 -1.82771907571e-05 -1.63127156325e-05 -1.32584765931e-05 -7.49462174252e-06 -4.25240835718e-06 -2.71051619296e-06 -1.81581756673e-06 -1.33655738254e-06 -1.06593181888e-06 -9.20327983077e-07 
1.58594456193e-06 1.61703998151e-06 1.81870928198e-06 2.10593318986e-06 2.73971270192e-06 3.48917500804e-06 5.2229788895e-06 7.12164410912e-06 9.26990722123e-06 1.37408192492e-05 1.53346844106e-05 1.77597716308e-05 1.86874480349e-05 1.92814805875e-05 2.05486483845e-05 1.98348656396e-05 2.01955781648e-05 1.98586906656e-05 1.97559318055e-05 1.93697974572e-05 1.87360179452e-05 1.79865556391e-05 1.61538413172e-05 1.4354086538e-05 1.19000313462e-05 7.7349113979e-06 5.22007799163e-06 3.71595901634e-06 2.78828261215e-06 2.19425005959e-06 1.84805050746e-06 1.64086500751e-06 
8.83672331634e-07 9.03680500896e-07 1.06421304706e-06 1.26767505928e-06 1.86418738674e-06 2.49050347508e-06 4.64148586955e-06 6.6969957751e-06 9.40284700956e-06 1.55150896651e-05 1.7369595161e-05 2.02991952146e-05 2.11938938409e-05 2.16731540251e-05 2.33314874782e-05 2.20893834245e-05 2.24744268809e-05 2.21060309067e-05 2.20365331415e-05 2.17420363483e-05 2.11455240209e-05 2.05192079325e-05 1.82771907571e-05 1.63127156325e-05 1.32584765931e-05 7.49462174252e-06 4.25240835718e-06 2.71051619296e-06 1.81581756673e-06 1.33655738254e-06 1.06593181888e-06 9.20327983077e-07 
2.67701845829e-06 2.72136172866e-06 2.94917986406e-06 3.3175177699e-06 3.91716263619e-06 4.72912273318e-06 5.81433411385e-06 7.29003553314e-06 8.58887229266e-06 1.07755070057e-05 1.1905651739e-05 1.34730945182e-05 1.43227671766e-05 1.49875929116e-05 1.56999136493e-05 1.56555991371e-05 1.5934040301e-05 1.56864073974e-05 1.55484389441e-05 1.50902513562e-05 1.44906064899e-05 1.36786463929e-05 1.25035853301e-05 1.11177335929e-05 9.61560720024e-06 7.63226212033e-06 6.19199800815e-06 4.93467460787e-06 4.08500194951e-06 3.42017621452e-06 3.01797485577e-06 2.75216998896e-06 
2.28821679223e-06 2.33039946212e-06 2.5732055169e-06 2.94419132044e-06 3.61523801709e-06 4.487846541e-06 5.80447190945e-06 7.54629244314e-06 9.1369674329e-06 1.19665488333e-05 1.32997736602e-05 1.52203480469e-05 1.6181002229e-05 1.68898071499e-05 1.77658092909e-05 1.75803478546e-05 1.79167294487e-05 1.76113504245e-05 1.74753304696e-05 1.69975585661e-05 1.63265118695e-05 1.54539033456e-05 1.40304918772e-05 1.23954574434e-05 1.05415860994e-05 7.97520105327e-06 6.18774762609e-06 4.72140183972e-06 3.76074765758e-06 3.05194273665e-06 2.63016919605e-06 2.36140203195e-06 
3.15497455139e-06 3.19871917427e-06 3.38382907979e-06 3.7136534279e-06 4.16542386493e-06 4.81976262163e-06 5.52832263703e-06 6.53386828451e-06 7.36559609661e-06 8.59807872245e-06 9.37628307611e-06 1.03695065248e-05 1.09980552831e-05 1.15401974034e-05 1.1994198735e-05 1.21135305999e-05 1.22922304457e-05 1.21410884308e-05 1.20131771801e-05 1.16261541772e-05 1.11743837401e-05 1.05200449834e-05 9.75428631316e-06 8.80593932056e-06 7.86681411647e-06 6.74172888261e-06 5.84730489121e-06 4.97030108029e-06 4.34175232198e-06 3.79961020166e-06 3.46182850782e-06 3.22627700514e-06 
3.06582012435e-06 3.1123239952e-06 3.32515421122e-06 3.69084421936e-06 4.21908725529e-06 4.97039892535e-06 5.82419631824e-06 7.03377862314e-06 8.04077715243e-06 9.58446517818e-06 1.05115298178e-05 1.17258409896e-05 1.24645321241e-05 1.30853786732e-05 1.36340180076e-05 1.37308504196e-05 1.39513511533e-05 1.37614643704e-05 1.36215474187e-05 1.31829441462e-05 1.26547011103e-05 1.19033894402e-05 1.0976678783e-05 9.84000974243e-06 8.6896283011e-06 7.28932318739e-06 6.19624839021e-06 5.14794737601e-06 4.40925624145e-06 3.78840969239e-06 3.40578051549e-06 3.14293794596e-06 
3.09722215967e-06 3.13358453538e-06 3.26573803878e-06 3.51861414581e-06 3.83238110673e-06 4.30240604093e-06 4.76793647273e-06 5.42759626081e-06 5.96890638062e-06 6.71343307477e-06 7.23582918578e-06 7.86665545504e-06 8.29897214467e-06 8.69015957737e-06 8.98659556196e-06 9.11723742838e-06 9.22750556654e-06 9.13826154867e-06 9.03765559066e-06 8.75323193824e-06 8.43946497732e-06 7.96944004313e-06 7.47236206594e-06 6.84424982324e-06 6.25005806127e-06 5.55841300928e-06 4.98865511824e-06 4.40519062901e-06 3.97287393938e-06 3.58168650668e-06 3.33261230212e-06 3.15460865567e-06 
3.24412897844e-06 3.28511435334e-06 3.44250394836e-06 3.73646263645e-06 4.11176047458e-06 4.6691263179e-06 5.23244895581e-06 6.03395794588e-06 6.69041504078e-06 7.61169226672e-06 8.24103633444e-06 9.01317206e-06 9.53157844205e-06 9.99501613363e-06 1.03543794623e-05 1.04962107802e-05 1.06331097381e-05 1.05207124912e-05 1.04048069416e-05 1.00693642081e-05 9.69406636997e-06 9.13670052665e-06 8.53189384334e-06 7.77186889868e-06 7.04399993184e-06 6.19413457784e-06 5.49836139221e-06 4.79265478456e-06 4.27424840251e-06 3.81081071092e-06 3.51787650014e-06 3.30961606431e-06 
2.63556374638e-06 2.66239616577e-06 2.74951980892e-06 2.92481257904e-06 3.13042605048e-06 3.44365113545e-06 3.74213576653e-06 4.16067764306e-06 4.50626376736e-06 4.96140186076e-06 5.29915514172e-06 5.69352264326e-06 5.97540854788e-06 6.23654802265e-06 6.42570580161e-06 6.52699798756e-06 6.5935406679e-06 6.54148839727e-06 6.47047463862e-06 6.279071984e-06 6.07345851256e-06 5.76023342759e-06 5.445638912e-06 5.04320691998e-06 4.67240094444e-06 4.24248270227e-06 3.88438358111e-06 3.51036191978e-06 3.22847601516e-06 2.96733654039e-06 2.79852460164e-06 2.67688657548e-06 
2.9503153409e-06 2.98205471741e-06 3.08897212919e-06 3.30076565518e-06 3.55300173888e-06 3.93568576395e-06 4.30342398964e-06 4.82123457575e-06 5.24739772045e-06 5.81517388282e-06 6.23062203713e-06 6.72013885009e-06 7.0663658473e-06 7.38530302111e-06 7.61881166158e-06 7.73826407652e-06 7.82190139503e-06 7.75581060613e-06 7.67050423971e-06 7.43709966837e-06 7.18486358467e-06 6.8021795596e-06 6.41283028854e-06 5.91663074779e-06 5.45611619071e-06 4.92269144073e-06 4.47894884427e-06 4.01772647346e-06 3.67149947624e-06 3.35256230244e-06 3.14734810411e-06 2.99960124702e-06 
1.8969884153e-06 1.91430097317e-06 1.96635140003e-06 2.07458886913e-06 2.19766751973e-06 2.38670827877e-06 2.56391677557e-06 2.8100613152e-06 3.01485778056e-06 3.27797408198e-06 3.47911906587e-06 3.70948523456e-06 3.8778011035e-06 4.03551188241e-06 4.14727842871e-06 4.21271810194e-06 4.25047666484e-06 4.22162206886e-06 4.17724378337e-06 4.0613341729e-06 3.93825552229e-06 3.74921476325e-06 3.56433412507e-06 3.32586172683e-06 3.10952322336e-06 2.85794896005e-06 2.64800224659e-06 2.42643780746e-06 2.25812193853e-06 2.10041115961e-06 1.99744634288e-06 1.92320494008e-06 
2.32081215186e-06 2.34273761412e-06 2.41006748864e-06 2.5488595029e-06 2.70785036208e-06 2.95161650695e-06 3.18084754343e-06 3.50012071036e-06 3.76512981426e-06 4.10762983871e-06 4.36768824632e-06 4.66690643642e-06 4.88445124845e-06 5.08779302419e-06 5.23259994165e-06 5.3157318986e-06 5.36517994078e-06 5.32716618842e-06 5.27044503754e-06 5.12104429963e-06 4.96205344045e-06 4.71828729558e-06 4.47844753546e-06 4.16978309217e-06 3.88868569816e-06 3.56227396382e-06 3.28981831794e-06 3.00299736611e-06 2.78545255408e-06 2.58211077834e-06 2.44970109916e-06 2.35417190393e-06 
9.88592171888e-07 9.97013917695e-07 1.02122985619e-06 1.07253364554e-06 1.12997585285e-06 1.21853179532e-06 1.30100603546e-06 1.41488525698e-06 1.51013151343e-06 1.63094791739e-06 1.72466223771e-06 1.83093233061e-06 1.90939837153e-06 1.98329617049e-06 2.0351301449e-06 2.06674046894e-06 2.08384377937e-06 2.07094760332e-06 2.04976830773e-06 1.99542787548e-06 1.93798566817e-06 1.84942972569e-06 1.76391884264e-06 1.65307626403e-06 1.55335557734e-06 1.43701360362e-06 1.33998024335e-06 1.2370291904e-06 1.15856314949e-06 1.08466535052e-06 1.03615041606e-06 1.00122105208e-06 
1.47316467873e-06 1.48586433222e-06 1.52263531143e-06 1.60031823536e-06 1.68748467738e-06 1.8218000506e-06 1.94698600772e-06 2.12000192003e-06 2.26458574685e-06 2.44831832525e-06 2.59054988543e-06 2.75206403271e-06 2.87115095854e-06 2.98323074063e-06 3.06195691578e-06 3.10970430528e-06 3.1357733889e-06 3.1160779493e-06 3.0840425292e-06 3.00162404616e-06 2.91445760413e-06 2.78014223092e-06 2.65022071469e-06 2.48194036149e-06 2.33036074855e-06 2.15362395627e-06 2.00618617524e-06 1.84987824881e-06 1.73079132298e-06 1.61871154089e-06 1.5451915866e-06 1.49223797624e-06 
3.2572413174e-21 3.38166279702e-21 3.77309352805e-21 3.14588075157e-21 4.32650934655e-21 3.78225316308e-21 4.65262930164e-21 5.66372027436e-21 6.05380611657e-21 6.69363930344e-21 8.18702237556e-21 9.58923624451e-21 8.38478251936e-21 1.00198230953e-20 1.12263398557e-20 1.13693289451e-20 1.18497755589e-20 1.11092423225e-20 1.06008953465e-20 1.0445565118e-20 1.03767294005e-20 1.13919194654e-20 9.60078600287e-21 9.23324453279e-21 8.29231679765e-21 7.68288333865e-21 6.17765671851e-21 5.26798361431e-21 5.19945966394e-21 4.94126549e-21 4.51914502958e-21 3.10958152019e-21 
