# vtk DataFile Version 3.0
example test vtk file
ASCII
DATASET STRUCTURED_POINTS
DIMENSIONS 32 32 1
SPACING 0.0125 0.0125 1
ORIGIN 0 0 0
POINT_DATA 1024
SCALARS velu float1
LOOKUP_TABLE default
0.00116847762158 0.00116955792132 0.00118105165909 0.00120271932098 0.00123402330965 0.0012741495008 0.00132184911326 0.00137550398272 0.00143300893398 0.00149198210125 0.00154982081392 0.00160403637924 0.00165236162928 0.00169293786787 0.00172429013467 0.00174535273285 0.00175541742833 0.00175414092597 0.00174154961525 0.0017180456745 0.00168444048845 0.00164192886822 0.00159213213701 0.00153701307757 0.00147889289008 0.00142022908675 0.00136355725003 0.0013111603493 0.00126504383146 0.00122673986167 0.00119741541118 0.00117783461627 
0.00116941950753 0.00117049888736 0.00118197542191 0.00120360495651 0.00123484304361 0.00127486610424 0.00132241915566 0.00137588181035 0.00143315821919 0.00149188422539 0.00154948220402 0.00160348434311 0.00165163512444 0.00169207800235 0.0017233345735 0.00174433505834 0.00175436926484 0.00175309430053 0.00174053837404 0.00171710576234 0.00168360987443 0.00164124642763 0.00159163576813 0.00153673496148 0.00147885232892 0.00142042744062 0.00136397332412 0.00131175792622 0.00126577876964 0.0012275707459 0.00119830731319 0.00117876131486 
0.00116849124922 0.00116957149198 0.00118106496988 0.00120273211567 0.00123403524287 0.00127416009895 0.00132185780632 0.0013755101457 0.00143301202708 0.00149198177441 0.00154981701729 0.00160402932985 0.00165235173229 0.00169292560601 0.00172427601772 0.00174533727935 0.00175540119476 0.00175412451537 0.00174153367518 0.00171803087433 0.00168442749326 0.00164191831146 0.00159212458439 0.00153700896695 0.00147889243627 0.00142023222999 0.00136356360519 0.0013111693305 0.00126505475619 0.00122675210629 0.0011974284593 0.00117784809047 
0.0011657266003 0.00116680926935 0.00117835167052 0.00120012794344 0.00123162148419 0.00127204639799 0.00132017375643 0.00137439240582 0.00143257046811 0.00149227229152 0.00155081981078 0.00160566095253 0.00165449495036 0.00169545776149 0.00172708646959 0.00174832809808 0.00175848080184 0.0017571997619 0.0017445059201 0.00172079506232 0.00168687213348 0.00164392898687 0.00159358844447 0.00153782987331 0.0014790114285 0.00141964488681 0.00136233311278 0.0013094049561 0.00126288826364 0.0012243067793 0.00119480695207 0.00117512684041 
0.00116115056149 0.0011622368807 0.00117385575874 0.00119580491203 0.0012276039999 0.00126851725316 0.00131735201548 0.00137251303587 0.00143182410316 0.00149275698637 0.00155249982183 0.00160838958195 0.0016580699093 0.00169967145751 0.00173175551536 0.00175329296425 0.00176359251582 0.00176230597877 0.00174944427808 0.00172539192775 0.00169094268823 0.00164728240057 0.00159603391199 0.0015392025499 0.00147920825906 0.00141865580811 0.00136026781989 0.00130645220601 0.00125927409043 0.00122023937166 0.00119045701844 0.0011706189527 
0.00115486092671 0.00115595136177 0.00116766556017 0.00118983502104 0.0012220329244 0.00126359838719 0.00131339713458 0.00136986404185 0.00143076383902 0.0014934323896 0.00155485526736 0.00161220318356 0.00166304507122 0.00170551251082 0.00173821048958 0.00176014828507 0.00177064974243 0.00176935952576 0.00175627298897 0.00173175777168 0.00169659097891 0.0016519481115 0.00159944555672 0.00154112127336 0.00147947893045 0.00141725898928 0.00135736488912 0.00130232166821 0.00125424370827 0.00121460486391 0.00118445425924 0.00116441488263 
0.00114695118863 0.00114804532114 0.00115986240321 0.00118227889786 0.00121494080568 0.00125729234833 0.00130828695809 0.00136641443871 0.00142936850458 0.00149430030341 0.00155790344937 0.00161711379222 0.00166941113878 0.00171294435115 0.00174639222268 0.00176882307052 0.00177957897797 0.00177829118905 0.00176493210604 0.00173984571768 0.00170378714566 0.00165791530886 0.00160382632057 0.00154359303977 0.00147982168716 0.00141543533351 0.00135359892638 0.00129699841054 0.00124780666108 0.00120744199055 0.00117686377132 0.00115659875398 
0.0011376037511 0.00113869996222 0.00115061255438 0.00117327402719 0.0012064248571 0.00124964912413 0.00130202816223 0.00136214469111 0.00142761834186 0.00149535874441 0.00156164969468 0.0016231043697 0.00167710851807 0.00172186054191 0.00175615823313 0.00177915610669 0.0017902156232 0.00178894269819 0.0017752775965 0.00174953294604 0.00171243758172 0.00166512622811 0.00160915012162 0.0015466132509 0.00148023423705 0.00141317261145 0.00134896083498 0.00129050047215 0.00124002317675 0.00119885624692 0.00116782898277 0.00114734024613 
0.00112700454542 0.00112809986934 0.00114008283383 0.00116295285746 0.00119656843331 0.00124069447466 0.0012945935274 0.00135700176812 0.00142547413433 0.00149661542963 0.00156613066515 0.0016301902449 0.00168610126338 0.00173216715257 0.0017673707782 0.00179099122188 0.0018024019525 0.001801164814 0.0017871763779 0.00176070789269 0.00172246307256 0.00167354345916 0.00161541327712 0.00155019754772 0.00148072168991 0.00141043996261 0.00134340951894 0.00128281427732 0.00123093095047 0.00118894101875 0.0011574892468 0.00113681027649 
0.00111545255992 0.00111654270327 0.00112855226408 0.0011515560761 0.00118555385735 0.0012305342635 0.00128600978734 0.0013509564875 0.00142290179534 0.00149807560649 0.00157136652081 0.00163833988687 0.0016962720138 0.00174366252381 0.00177976962311 0.00180404468457 0.00181585499993 0.00181468562792 0.00180037658169 0.00177314715028 0.0017336861568 0.00168305406543 0.00162256505039 0.00155434611482 0.00148129433662 0.00140722223185 0.00133693411221 0.00127398404334 0.00122065023896 0.00117788919961 0.0011460923688 0.00112529160188 
0.00110326103568 0.00110434016678 0.00111631171147 0.00113933016624 0.0011735583326 0.00121925147141 0.00127625882324 0.00134392456702 0.00141982916835 0.00149976469282 0.00157743741853 0.00164756880478 0.0017075266509 0.00175614580961 0.00179308193875 0.00181802685988 0.00183029086319 0.0018292350337 0.00181463053407 0.00178662650107 0.00174593400438 0.00169356561135 0.0016305822022 0.00155909664639 0.00148198520439 0.0014034728402 0.00132947093162 0.00126401310254 0.00120928053509 0.00116589068225 0.00113389291276 0.00111307931125 
0.00109087704166 0.00109193867991 0.00110379401114 0.00112667453474 0.00116091909091 0.00120708113185 0.00126544452942 0.0013358882653 0.00141620519084 0.00150170265311 0.0015843817178 0.00165779432189 0.00171962185482 0.0017692429528 0.00180685550214 0.00183247009581 0.00184525609024 0.00184437444092 0.00182951968692 0.00180075176632 0.00175887300034 0.00170484874823 0.00163934744699 0.00156445268732 0.00148284076207 0.00139918640182 0.00132102857906 0.00125302615265 0.00119707247591 0.00115329143949 0.00112129528691 0.00110060799505 
0.00107877276988 0.00107980940962 0.00109145741022 0.00111401065402 0.00114798750813 0.001194247357 0.00125361778339 0.00132673527616 0.00141189488176 0.00150395318282 0.00159236123356 0.00166899885242 0.00173232633443 0.00178255534009 0.00182059346967 0.00184689143405 0.00186029089411 0.00185965914439 0.00184462266795 0.00181510001812 0.00177215124275 0.00171669250549 0.00164876901248 0.00157049125433 0.00148397297852 0.0013942964857 0.00131151900305 0.00124110064313 0.0011842683347 0.00114045332511 0.00110872674262 0.00108833738483 
0.00106754073804 0.00106854652306 0.00107990737255 0.00110195530629 0.00113536850178 0.00118128017207 0.00124114245214 0.00131658459843 0.00140686945432 0.00150653533595 0.00160135535359 0.00168090073857 0.00174511372155 0.00179542103483 0.00183357357805 0.00186058595032 0.00187472210919 0.0018744221571 0.00185927548964 0.00182900182019 0.00178515713064 0.00172861675516 0.00165853285016 0.00157715899099 0.00148548650696 0.00138886727937 0.00130108140185 0.00122860904899 0.0011714058946 0.00112797790705 0.00109679971211 0.00107686864886 
0.00105780198169 0.00105877208895 0.00106978359674 0.0010911650022 0.0011237154824 0.00116873829556 0.00122835253095 0.00130540695098 0.00140091638897 0.00150955846597 0.00161158789055 0.00169328019137 0.00175742439067 0.00180710549669 0.0018449796774 0.0018728489366 0.00188787612492 0.00188798252461 0.00187280877994 0.00184169173209 0.00179721651514 0.00174015788856 0.0016683120338 0.00158453583941 0.00148765456485 0.00138283951196 0.00128967854694 0.00121590015077 0.00115905691297 0.00111651384718 0.00108616684929 0.00106683534439 
0.00105018531642 0.00105112091872 0.00106178232724 0.0010824589979 0.00111401033279 0.00115776393718 0.00121641502805 0.00129409133181 0.0013944216459 0.00151283286457 0.00162234656906 0.00170509357385 0.00176814278257 0.00181660290521 0.00185389921003 0.00188277416784 0.00189881573749 0.00189935618142 0.00188420026033 0.00185213894826 0.00180730773575 0.00175030943366 0.0016772302208 0.00159208875142 0.00149043814248 0.00137667251823 0.00127817658702 0.00120409786384 0.00114833866934 0.0011070101601 0.00107762170189 0.00105891971323 
0.00104533092643 0.00104623885559 0.00105662051077 0.00107669452234 0.00110731203072 0.00114960342414 0.00120659038074 0.00128340696143 0.00138749449788 0.00151629761627 0.0016332417027 0.00171525248874 0.00177602023361 0.0018227741046 0.00185929982378 0.00188955181392 0.00190661469539 0.0019075279654 0.0018924225541 0.00185908370086 0.00181430402104 0.0017580960037 0.00168427377517 0.00159942755178 0.00149409200006 0.00137065027327 0.00126723088864 0.00119442212113 0.00114048843091 0.00110048300169 0.00107199579527 0.00105382186242 
0.00104359565259 0.00104449103251 0.00105475124275 0.00107454720196 0.00110471287995 0.00114620457827 0.00120213809236 0.00127805111037 0.00138372677688 0.00151815645193 0.00163896502329 0.00172000455549 0.00177926076831 0.00182500509745 0.00186108154974 0.00189221557508 0.0019097791068 0.00191085303898 0.00189579256832 0.00186163247971 0.00181702521547 0.00176146883468 0.00168734390168 0.00160318308714 0.00149629279357 0.00136753024274 0.00126168899149 0.00119005061717 0.00113726472715 0.00109796013458 0.00106991297685 0.00105197822919 
0.00104530627587 0.00104621437253 0.00105659469525 0.00107666532104 0.00110727715884 0.00114955845025 0.00120653182419 0.00128333567923 0.00138743844883 0.0015163050552 0.00163329841715 0.00171530652839 0.00177606305602 0.00182280702278 0.00185932988463 0.00188959984037 0.00190667329918 0.00190759003649 0.00189248453877 0.00185912950334 0.00181434843198 0.00175814677966 0.00168431662283 0.00159947565592 0.00149411431324 0.00137059837237 0.00126714854432 0.00119435805275 0.00114044117623 0.00110044621943 0.00107196557987 0.00105379537755 
0.00105014066415 0.00105107659837 0.00106173633314 0.00108240905596 0.00111395427639 0.00115769924944 0.00121634193806 0.00129401707457 0.0013943712689 0.00151283853288 0.00162239820392 0.00170515540922 0.00176820241629 0.00181665884077 0.00185395584842 0.00188284375114 0.00189889713163 0.00189944229991 0.0018842856739 0.00185221388197 0.0018073764186 0.00175037618668 0.00167728648352 0.00159213523278 0.001490451384 0.00137662373454 0.00127809425086 0.00120401860798 0.00114827005507 0.00110695119845 0.00107756992034 0.00105887261258 
0.00105773762224 0.00105870819028 0.00106971770377 0.00109109449552 0.00112363835482 0.00116865309036 0.00122826190878 0.00130532160096 0.00140086089156 0.00150956201495 0.00161164234806 0.00169335321673 0.00175750235572 0.00180718426654 0.0018450619265 0.00187294536914 0.00188798463611 0.0018880962646 0.00187292187285 0.00184179371845 0.00179730982782 0.00174024468998 0.00166838215892 0.00158458681033 0.00148766459753 0.00138278468003 0.00128958562658 0.00121580297748 0.00115896661085 0.00111643294044 0.00108609382511 0.00106676794149 
0.00106746541586 0.00106847173094 0.00107983104414 0.00110187552678 0.00113528421262 0.00118119176503 0.00124105427886 0.00131650764546 0.00140682273338 0.00150653755568 0.00160140159879 0.00168097029128 0.00174519430973 0.00179550764619 0.0018336668203 0.00186069078743 0.00187483749875 0.00187454231833 0.00185939448369 0.00182911216846 0.00178525709558 0.00172870550861 0.00165860269039 0.00157720403609 0.00148549176922 0.00138882001574 0.00130099875252 0.0012285149348 0.00117131238854 0.00112788966743 0.00109671717478 0.00107679066897 
0.00107868667237 0.00107972388439 0.00109137072395 0.00111392139809 0.00114789538581 0.00119415394827 0.0012535284268 0.00132666088881 0.00141185108186 0.00150395419023 0.00159240396644 0.00166906802968 0.00173241135364 0.0017826505378 0.00182069773754 0.00184700723337 0.00186041617315 0.00185978866384 0.00184475070339 0.00181521945112 0.00177225898813 0.00171678591257 0.00164884040307 0.00157053422162 0.00148397619257 0.00139425177985 0.00131143993079 0.00124100596019 0.0011841699349 0.00114035721121 0.0011086345928 0.00108824895624 
0.00109078880411 0.00109185100227 0.00110370579093 0.0011265851032 0.00116082889262 0.0012069925134 0.00126536291684 0.00133582305925 0.00141616824378 0.00150170350989 0.00158441868886 0.0016578574915 0.00171970271667 0.00176933618831 0.00180695909011 0.00183258400199 0.00184537813605 0.00184449997113 0.00182964336696 0.00180086768756 0.00175897699835 0.00170493712122 0.00163941374619 0.00156449072248 0.00148284275755 0.0013991483126 0.00132095962463 0.0012529399618 0.00119697939319 0.00115319752464 0.00112120310033 0.001100518096 
0.00110317058335 0.00110425025051 0.00111622173358 0.00113924001777 0.00117346899226 0.00121916574916 0.00127618202337 0.00134386496154 0.00141979611703 0.0014997653429 0.00157747090294 0.00164762815492 0.00170760502198 0.00175623821359 0.00179318562526 0.00181814055915 0.00183041180525 0.00182935885581 0.0018147522109 0.00178674048671 0.00174603581583 0.00169365099629 0.00163064522648 0.00155913177315 0.00148198683767 0.00140343876337 0.00132940831352 0.00126393242864 0.00120919086527 0.00116579795967 0.00113380019253 0.00111298775409 
0.00111536673941 0.00111645736571 0.00112846729384 0.00115147181785 0.00118547162016 0.0012304569065 0.00128594208431 0.00135090518833 0.00142287404153 0.00149807647482 0.00157139565233 0.00163839261367 0.00169634303419 0.00174374750649 0.00177986569725 0.00180414979001 0.00181596633579 0.00181479923717 0.00180048793368 0.00177325141143 0.0017337789117 0.00168313110224 0.00162262133511 0.00155437699469 0.001481295885 0.00140719354096 0.00133688035847 0.00127391310345 0.00122056951565 0.00117780400077 0.00114600582875 0.00112520521317 
0.00112692307821 0.00112801882993 0.00114000246004 0.00116287381899 0.00119649222503 0.00124062391415 0.00129453286178 0.00135695663082 0.00142545010862 0.00149661638599 0.00156615653094 0.00163023775053 0.00168616623824 0.00173224583228 0.00176746023371 0.00179108907247 0.00180250528045 0.00180126995881 0.00178727919808 0.00176080398451 0.00172254826148 0.00167361370443 0.00161546419311 0.00155022524038 0.0014807233411 0.00141041522684 0.0013433624553 0.00128275097527 0.00123085757553 0.00118886228049 0.0011574082256 0.00113672866138 
0.00113753145564 0.0011386280296 0.00115054144628 0.0011732045622 0.00120635853376 0.00124958846886 0.00130197675653 0.0013621069944 0.00142759861729 0.00149535983655 0.00156167168145 0.00162314499226 0.00167716459507 0.00172192895102 0.00175623632466 0.00177924149393 0.00179030562484 0.00178903409807 0.0017753668109 0.0017496162067 0.00171251119331 0.00166518662944 0.00160919368547 0.00154663687208 0.00148023588998 0.00141315230697 0.00134892159114 0.00129044692793 0.00123996021078 0.00119878781314 0.00116775785007 0.00114726808408 
0.0011468877133 0.00114798214534 0.00115980011425 0.00118221838339 0.00121488348556 0.00125724045437 0.001308243464 0.00136638290686 0.00142935220549 0.00149430140666 0.00155792209446 0.00161714839403 0.00166945924576 0.00171300340244 0.00174645984599 0.0017688970429 0.00177965683976 0.00177837013201 0.00176500903425 0.00173991738954 0.00170385036154 0.00165796698069 0.00160386346036 0.00154361316393 0.00147982334069 0.00141541864056 0.00135356622792 0.00129695325109 0.00124775293506 0.00120738297139 0.00117680189882 0.00115653560208 
0.00115480934444 0.00115590001536 0.00116761503574 0.00118978613015 0.00122198688629 0.00126355700756 0.00131336274363 0.001369839321 0.00143075120786 0.00149343341968 0.00155487011274 0.00161223074602 0.00166308354755 0.00170555990754 0.00173826488063 0.00176020778481 0.00177071231955 0.00176942289879 0.00175633467229 0.0017318151755 0.00169664152408 0.00165198932613 0.00159947511417 0.00154113730174 0.00147948038975 0.00141724605901 0.00135733927455 0.00130228599728 0.00125420091073 0.00121455749956 0.00118440430315 0.00116436367712 
0.00116111056874 0.00116219706232 0.00117381663808 0.00119576718068 0.00122756863575 0.00126848565456 0.0013173259202 0.00137249440368 0.00143181465884 0.00149275785467 0.00155251113492 0.00160841060269 0.00165809934403 0.00169970782826 0.00173179732199 0.00175333871617 0.00176364060415 0.00176235463581 0.00174949158948 0.00172543590625 0.00169098135861 0.00164731387149 0.00159605645374 0.00153921479172 0.00147920949052 0.00141864618352 0.00136024857016 0.0013064252011 0.00125924147124 0.00122020304303 0.00119041850676 0.00117057933133 
0.0011656998762 0.00116678266026 0.00117832555398 0.00120010280285 0.00123159798925 0.00127202547771 0.00132015655116 0.00137438017232 0.00143256430731 0.00149227291146 0.00155082730911 0.00160567487324 0.00165451447352 0.0016954819189 0.00172711426363 0.00174835851579 0.00175851276246 0.00175723208248 0.00174453732835 0.00172082424035 0.00168689776781 0.00164394982711 0.00159360335761 0.00153783798075 0.00147901228208 0.001419638606 0.00136232047366 0.00130938715549 0.00126286667395 0.0012242826498 0.00119478129711 0.00117510039272 
