# vtk DataFile Version 3.0
example test vtk file
ASCII
DATASET STRUCTURED_POINTS
DIMENSIONS 32 32 1
SPACING 0.0125 0.0125 1
ORIGIN 0 0 0
POINT_DATA 1024
SCALARS velu float1
LOOKUP_TABLE default
2.03650058645e-09 2.05296713467e-09 2.10752049738e-09 2.21094374713e-09 2.34006942558e-09 2.51884309446e-09 2.70524921343e-09 2.93531440311e-09 3.15133027027e-09 3.39596834671e-09 3.60744413685e-09 3.82394049268e-09 3.99790793176e-09 4.15078692596e-09 4.26177645241e-09 4.33041360352e-09 4.36263500351e-09 4.34091496019e-09 4.2891478933e-09 4.18156001338e-09 4.05151707653e-09 3.87182614924e-09 3.68125540011e-09 3.45397650625e-09 3.23270714399e-09 2.99318624373e-09 2.7784785706e-09 2.56659243211e-09 2.39367857035e-09 2.24185315347e-09 2.13547384436e-09 2.06360481026e-09 
2.02731714493e-09 2.04386238714e-09 2.09874573685e-09 2.20270852832e-09 2.33273201587e-09 2.51269232063e-09 2.70069060599e-09 2.93268471949e-09 3.15078866962e-09 3.3977494555e-09 3.611231241e-09 3.82960877795e-09 4.00500820606e-09 4.15893411638e-09 4.27069906178e-09 4.33964430958e-09 4.37204256844e-09 4.35015469432e-09 4.29804519926e-09 4.18984404787e-09 4.05885448624e-09 3.8779281074e-09 3.68569146212e-09 3.45647120328e-09 3.23302462123e-09 2.99123668274e-09 2.77447404842e-09 2.56084186556e-09 2.38657829605e-09 2.23378824434e-09 2.12676865303e-09 2.05454255641e-09 
1.93442624722e-09 1.95168757e-09 2.01051184875e-09 2.12087893167e-09 2.26036313312e-09 2.45362628874e-09 2.65654838414e-09 2.90884315485e-09 3.14516619628e-09 3.41574348013e-09 3.64679819e-09 3.88479441621e-09 4.07396096375e-09 4.23921566296e-09 4.35976159888e-09 4.43192010331e-09 4.46742186076e-09 4.44286595575e-09 4.3877852592e-09 4.27187046281e-09 4.13122336899e-09 3.936797321e-09 3.72832751213e-09 3.47977632361e-09 3.23615869996e-09 2.97258726607e-09 2.73676799734e-09 2.50534046127e-09 2.31762553836e-09 2.15382246379e-09 2.03984521801e-09 1.96292215471e-09 
1.87203011541e-09 1.88979488498e-09 1.950900892e-09 2.06503393791e-09 2.21055500558e-09 2.41207080346e-09 2.62554733572e-09 2.89122088942e-09 3.14129996876e-09 3.42805711884e-09 3.67230955789e-09 3.92333000712e-09 4.12201362233e-09 4.29444066347e-09 4.42037366813e-09 4.49449345166e-09 4.53141891805e-09 4.50550256763e-09 4.44827852903e-09 4.32797896196e-09 4.18103149653e-09 3.97808930088e-09 3.75844624747e-09 3.49665466219e-09 3.238424002e-09 2.95930508162e-09 2.70968617036e-09 2.46631674608e-09 2.26957287978e-09 2.09908558755e-09 1.98080360784e-09 1.9013173521e-09 
1.65084898559e-09 1.66998504838e-09 1.73974467072e-09 1.86727341904e-09 2.0343497655e-09 2.26597820774e-09 2.51546114993e-09 2.83073203594e-09 3.12600488639e-09 3.47334402142e-09 3.76057328231e-09 4.06023105494e-09 4.29134160085e-09 4.48933579433e-09 4.63586783213e-09 4.71517617951e-09 4.75950530787e-09 4.72675889425e-09 4.66334328719e-09 4.52624435315e-09 4.35723673661e-09 4.1236770243e-09 3.86462389639e-09 3.55569702564e-09 3.24681382437e-09 2.91207650714e-09 2.61487009249e-09 2.32841564407e-09 2.10024490126e-09 1.90519051088e-09 1.77186179729e-09 1.68257629615e-09 
1.52910239158e-09 1.54897271904e-09 1.62228998681e-09 1.75560002403e-09 1.93310932793e-09 2.17943591003e-09 2.44976623027e-09 2.79219071092e-09 3.11660231344e-09 3.49986120815e-09 3.81456133643e-09 4.14108869626e-09 4.3902747592e-09 4.6009402996e-09 4.75731205732e-09 4.83836346327e-09 4.88498255133e-09 4.84938656263e-09 4.78260788249e-09 4.63844416163e-09 4.45847717418e-09 4.20969290853e-09 3.92850890465e-09 3.59262301162e-09 3.25248574786e-09 2.88309641784e-09 2.55644166863e-09 2.24618402574e-09 2.00131174291e-09 1.79495998262e-09 1.65485794185e-09 1.56185191496e-09 
1.15737099078e-09 1.17841870305e-09 1.2633100615e-09 1.41234919565e-09 1.62201205563e-09 1.91254430374e-09 2.24526913473e-09 2.67509583651e-09 3.08295675711e-09 3.58648030826e-09 3.97778233389e-09 4.39311535033e-09 4.69473720342e-09 4.94255379272e-09 5.1327254572e-09 5.21263147034e-09 5.27139913223e-09 5.222762635e-09 5.14882139477e-09 4.98258008701e-09 4.76957444648e-09 4.47569941783e-09 4.12577241322e-09 3.70689582966e-09 3.2714461241e-09 2.79184158545e-09 2.37612200618e-09 1.99145859878e-09 1.69684929869e-09 1.45604526239e-09 1.29654320695e-09 1.19221964016e-09 
9.67248129326e-10 9.8868004187e-10 1.07614860823e-09 1.22920503402e-09 1.45030312475e-09 1.75857613572e-09 2.12468090164e-09 2.5991744569e-09 3.0611801893e-09 3.63757006883e-09 4.07804032574e-09 4.53932512102e-09 4.86663067366e-09 5.12944157077e-09 5.33324372641e-09 5.4084833672e-09 5.46863901297e-09 5.41528346271e-09 5.33863766864e-09 5.16648727791e-09 4.94128337736e-09 4.62890455657e-09 4.24370582571e-09 3.78003504274e-09 3.28610567262e-09 2.73493562574e-09 2.26359460459e-09 1.8414517662e-09 1.52495582845e-09 1.27295454623e-09 1.10829434747e-09 1.00218394245e-09 
4.18816488613e-10 4.39201627234e-10 5.34354130506e-10 6.91784339613e-10 9.46371553555e-10 1.29858187927e-09 1.76297544326e-09 2.373228937e-09 2.98392963612e-09 3.80282637865e-09 4.37002294456e-09 4.98078729491e-09 5.37562306717e-09 5.6740439447e-09 5.92787193422e-09 5.96964759269e-09 6.04472600934e-09 5.96923444385e-09 5.89084442243e-09 5.70502977264e-09 5.44521494855e-09 5.0877770127e-09 4.59499900802e-09 4.00150799613e-09 3.33570087015e-09 2.55880495846e-09 1.92500699871e-09 1.39246600103e-09 1.01596343494e-09 7.35875763576e-10 5.60271126729e-10 4.51894074418e-10 
1.5551817265e-10 1.74535834315e-10 2.65321354716e-10 4.15526895917e-10 6.70566678384e-10 1.03129748271e-09 1.54364260339e-09 2.21566717008e-09 2.92878946655e-09 3.90748901196e-09 4.56185762365e-09 5.2427458463e-09 5.66125237984e-09 5.9662596811e-09 6.23754521518e-09 6.24985628061e-09 6.31833801241e-09 6.23725514508e-09 6.16174844433e-09 5.98184741917e-09 5.72101982373e-09 5.35450120642e-09 4.81246060178e-09 4.15571485475e-09 3.38052735261e-09 2.44046335886e-09 1.69725845734e-09 1.11962318882e-09 7.30334122266e-10 4.54544288e-10 2.86511708057e-10 1.85364352789e-10 
-5.76589675979e-10 -5.64910330489e-10 -4.8976969482e-10 -3.79114256486e-10 -1.25174973263e-10 2.2940583571e-10 8.92563825903e-10 1.73699111969e-09 2.72975836727e-09 4.25797675753e-09 5.12055690424e-09 6.03589314562e-09 6.50064930805e-09 6.79626322262e-09 7.15040774357e-09 7.02015628314e-09 7.09099512971e-09 6.98092468915e-09 6.92403552936e-09 6.77685966965e-09 6.51676147537e-09 6.15602175535e-09 5.45634334378e-09 4.63016752587e-09 3.53900918322e-09 2.06453047608e-09 1.00159982352e-09 3.04883033485e-10 -1.09062805937e-10 -3.53866397507e-10 -4.89391467117e-10 -5.59490512522e-10 
-8.96739967195e-10 -8.90637469971e-10 -8.37989940407e-10 -7.63408005761e-10 -5.54041086391e-10 -2.31391169949e-10 4.92874305047e-10 1.38287276589e-09 2.57813077447e-09 4.49654189797e-09 5.51710601778e-09 6.51177029065e-09 6.95649799484e-09 7.22582335986e-09 7.61453760616e-09 7.38103053955e-09 7.41277083328e-09 7.30614242171e-09 7.26780114376e-09 7.16009305046e-09 6.9456275885e-09 6.61787912947e-09 5.86048749582e-09 4.9847952866e-09 3.68901136366e-09 1.79496347717e-09 4.97876887309e-10 -2.01445008484e-10 -5.64911492734e-10 -7.52975637808e-10 -8.4634750703e-10 -8.89362910467e-10 
-1.74552333474e-09 -1.75865842471e-09 -1.78520510864e-09 -1.84976763804e-09 -1.78886649498e-09 -1.65163450071e-09 -6.88181162288e-10 2.52352546748e-10 2.01059127816e-09 5.34616712174e-09 6.70704135386e-09 7.98550826525e-09 8.30237509029e-09 8.41310434592e-09 9.01618010039e-09 8.31779091344e-09 8.26890659812e-09 8.16886437765e-09 8.19516694517e-09 8.24348395287e-09 8.18045299709e-09 8.0410911901e-09 7.06139232997e-09 6.12061450453e-09 4.24919846268e-09 8.89476694696e-10 -1.11134158095e-09 -1.73337481069e-09 -1.91078858818e-09 -1.88206479626e-09 -1.82870686908e-09 -1.77026172566e-09 
-2.0572910494e-09 -2.08131459909e-09 -2.15297437814e-09 -2.29312628475e-09 -2.37862041494e-09 -2.34684324084e-09 -1.31969783385e-09 -4.7942591453e-10 1.64048601412e-09 5.85790102962e-09 7.48080180819e-09 8.7545772089e-09 8.90907654677e-09 8.94480372832e-09 9.6578382319e-09 8.7031607694e-09 8.52853455441e-09 8.47660770557e-09 8.54658595378e-09 8.68247475515e-09 8.77020691705e-09 8.74066777465e-09 7.70925926243e-09 6.86730581227e-09 4.6714434851e-09 3.19888072242e-10 -2.1517645239e-09 -2.57084347096e-09 -2.51749004466e-09 -2.34536446204e-09 -2.20370251196e-09 -2.09777686705e-09 
-2.79021552972e-09 -2.84436687132e-09 -3.09003521404e-09 -3.48774878755e-09 -4.11829332967e-09 -4.63241981265e-09 -3.18310144901e-09 -3.07827741767e-09 1.02761241493e-10 7.91349024483e-09 1.00138040769e-08 1.12778193411e-08 1.07119015373e-08 1.03260873486e-08 1.17663640801e-08 9.57689225994e-09 9.02481744148e-09 9.20988651878e-09 9.39939858849e-09 9.86886609761e-09 1.05098798318e-08 1.10344755068e-08 9.65691107879e-09 9.49593077443e-09 6.44580985096e-09 -1.82870040273e-09 -5.83938547777e-09 -5.2086271616e-09 -4.32031503514e-09 -3.61210652393e-09 -3.157609675e-09 -2.87850909781e-09 
-2.97369314164e-09 -3.03507346977e-09 -3.2901422855e-09 -3.72455152355e-09 -4.29762929321e-09 -4.77216280867e-09 -3.40386341243e-09 -2.95134028081e-09 2.9540414314e-10 7.71530891024e-09 9.9758387383e-09 1.14031962953e-08 1.09810935504e-08 1.06139947947e-08 1.18340967618e-08 9.80811149221e-09 9.30306095586e-09 9.39152130575e-09 9.60712019651e-09 1.01022896671e-08 1.06892157953e-08 1.11775976693e-08 9.87005850564e-09 9.37806544905e-09 6.15840104686e-09 -1.66866748978e-09 -5.65159027463e-09 -5.37784518235e-09 -4.58950704831e-09 -3.85617290335e-09 -3.37517222121e-09 -3.07157990845e-09 
-3.16491282854e-09 -3.24010024689e-09 -3.5918222247e-09 -4.15849643945e-09 -5.15120846692e-09 -5.98364545394e-09 -4.37665713902e-09 -4.70493068943e-09 -8.1375468257e-10 9.12948682116e-09 1.16432104125e-08 1.28132030206e-08 1.17741039254e-08 1.11537908648e-08 1.29522851241e-08 1.00733844295e-08 9.24078472067e-09 9.56897509194e-09 9.84956378957e-09 1.05307350264e-08 1.1542794969e-08 1.23945798712e-08 1.09020885784e-08 1.11592288486e-08 7.52105579466e-09 -3.13713160716e-09 -8.14759550518e-09 -6.86421154847e-09 -5.38251742326e-09 -4.3196093327e-09 -3.66472702718e-09 -3.28256663925e-09 
-3.16878386604e-09 -3.24726033622e-09 -3.64260865856e-09 -4.2570675294e-09 -5.48833007201e-09 -6.51951527857e-09 -4.7526730206e-09 -5.64519446216e-09 -1.46465554625e-09 9.93566644391e-09 1.24958789189e-08 1.34555179062e-08 1.20360131063e-08 1.12797351769e-08 1.34775129644e-08 1.0090411282e-08 9.07052484589e-09 9.56688459154e-09 9.86692478209e-09 1.06282459213e-08 1.18799165741e-08 1.29315098909e-08 1.13115299013e-08 1.21087432111e-08 8.34608757062e-09 -3.95138012233e-09 -9.48949572203e-09 -7.52278572116e-09 -5.64442660415e-09 -4.42929435765e-09 -3.70072315707e-09 -3.29152459932e-09 
-2.60916642022e-09 -2.65712737832e-09 -2.84700508448e-09 -3.17652581712e-09 -3.59635363838e-09 -3.89730943508e-09 -2.66016954564e-09 -2.12204641561e-09 7.38816097613e-10 7.09060411402e-09 9.13567185715e-09 1.04627326719e-08 1.02106356456e-08 9.98632514054e-09 1.10424477578e-08 9.37975917319e-09 8.96978957493e-09 9.02383664895e-09 9.18939437541e-09 9.55784944332e-09 9.98794014049e-09 1.02991588131e-08 9.10095325893e-09 8.5385101492e-09 5.6837337519e-09 -1.00149750988e-09 -4.47872990612e-09 -4.38824042338e-09 -3.81904914352e-09 -3.27764438489e-09 -2.91621670463e-09 -2.68569277311e-09 
-2.35452294948e-09 -2.38797230518e-09 -2.50834879225e-09 -2.72579860806e-09 -2.87742815288e-09 -2.97371252083e-09 -1.82109137575e-09 -9.50814163753e-10 1.38954969545e-09 6.23509212594e-09 7.94682031885e-09 9.39689225217e-09 9.4958620787e-09 9.41353263928e-09 1.0228002411e-08 9.02888127757e-09 8.84463582786e-09 8.78449088353e-09 8.88492388085e-09 9.11417245747e-09 9.26901465499e-09 9.36851167564e-09 8.22768929138e-09 7.33746858963e-09 4.9035104304e-09 -6.89647852797e-11 -2.81379109834e-09 -3.22262018257e-09 -3.10427557659e-09 -2.80463170466e-09 -2.57785862734e-09 -2.41183561401e-09 
-1.50557763026e-09 -1.51272658515e-09 -1.5100386479e-09 -1.52458286408e-09 -1.40174496789e-09 -1.17492311834e-09 -3.09631015236e-10 6.71450320968e-10 2.24962256119e-09 5.00533242369e-09 6.291408371e-09 7.4847880117e-09 7.87875121558e-09 8.06476698467e-09 8.54979431139e-09 8.05934163465e-09 8.03788979845e-09 7.92557384489e-09 7.93066780578e-09 7.91894081103e-09 7.79333147e-09 7.5637381756e-09 6.67217486158e-09 5.69887542352e-09 4.00123827483e-09 1.23889782578e-09 -5.14685885882e-10 -1.22206844946e-09 -1.48716471347e-09 -1.54431354269e-09 -1.54334379229e-09 -1.5203988799e-09 
-1.16097552952e-09 -1.15817199495e-09 -1.11193991367e-09 -1.05701289141e-09 -8.36591845919e-10 -5.2184129663e-10 2.67393778398e-10 1.24054396601e-09 2.51644150743e-09 4.6120047004e-09 5.68106082316e-09 6.79151757251e-09 7.26589531533e-09 7.52394144999e-09 7.94501111927e-09 7.65258396377e-09 7.70464573163e-09 7.57679699205e-09 7.54615610044e-09 7.45425143924e-09 7.22817834803e-09 6.90777575303e-09 6.08156303905e-09 5.12400404111e-09 3.72306129468e-09 1.67819149968e-09 2.90072493383e-10 -4.79934923149e-10 -8.74308813224e-10 -1.05235109513e-09 -1.1329714316e-09 -1.15960715963e-09 
-3.58384992512e-10 -3.43637092469e-10 -2.61395048524e-10 -1.32302443228e-10 1.26406300418e-10 4.96095564408e-10 1.10692609061e-09 1.9067576136e-09 2.81105579723e-09 4.12463416354e-09 4.93258260357e-09 5.76856142139e-09 6.23037158062e-09 6.54040882176e-09 6.8557147459e-09 6.79250170285e-09 6.85982024122e-09 6.75991922325e-09 6.69440174857e-09 6.53024223933e-09 6.26518020169e-09 5.88913764371e-09 5.24324021356e-09 4.46013325983e-09 3.47068195828e-09 2.20257675551e-09 1.24808539385e-09 5.76991832338e-10 1.61214921492e-10 -1.02789071273e-10 -2.53209739098e-10 -3.36539617677e-10 
-4.3645249494e-11 -2.53099827891e-11 7.00191256494e-11 2.21369689454e-10 4.94226537492e-10 8.72016464504e-10 1.42199640194e-09 2.14887882695e-09 2.90463559695e-09 3.96196017244e-09 4.6504004549e-09 5.39343579437e-09 5.84007278435e-09 6.15838904031e-09 6.45092291641e-09 6.45001080872e-09 6.53177638296e-09 6.43847545414e-09 6.36270634248e-09 6.17644624643e-09 5.89735996462e-09 5.51334060383e-09 4.92845113415e-09 4.22112870593e-09 3.39040627379e-09 2.38589390379e-09 1.59448054444e-09 9.69767817331e-10 5.51513717759e-10 2.61580352211e-10 8.73690884699e-11 -1.46918807298e-11 
5.87103864516e-10 6.08438596473e-10 7.01925680664e-10 8.61073309463e-10 1.10644258252e-09 1.44925506099e-09 1.88203048825e-09 2.4497005367e-09 3.014204643e-09 3.7435238615e-09 4.2747752399e-09 4.83445194584e-09 5.21160678496e-09 5.5029486034e-09 5.73783519653e-09 5.7980287208e-09 5.8662725851e-09 5.79955776995e-09 5.71979736438e-09 5.53567817536e-09 5.28514391959e-09 4.93716645841e-09 4.47941947092e-09 3.9254761011e-09 3.3155919116e-09 2.62018726665e-09 2.03974983558e-09 1.54050406391e-09 1.17997971715e-09 9.0526839107e-10 7.30812732212e-10 6.21433155276e-10 
8.29252476345e-10 8.50945247456e-10 9.43888134649e-10 1.10320823043e-09 1.33833404151e-09 1.66418526152e-09 2.05328660296e-09 2.56160048168e-09 3.04960244304e-09 3.6680633429e-09 4.13208134114e-09 4.62819048531e-09 4.97544333235e-09 5.25287983722e-09 5.47106893967e-09 5.54573060031e-09 5.61335417003e-09 5.55351518791e-09 5.47448179645e-09 5.29269214165e-09 5.0532524606e-09 4.72308737062e-09 4.31151647016e-09 3.81711208717e-09 3.2909639148e-09 2.70440461974e-09 2.20390534507e-09 1.7528375406e-09 1.41614316976e-09 1.14926514108e-09 9.76117378337e-10 8.6497444128e-10 
1.27418813564e-09 1.29521037536e-09 1.37661979788e-09 1.52189790869e-09 1.72179749039e-09 1.99948703913e-09 2.31255750677e-09 2.7136718666e-09 3.09570186749e-09 3.55653025947e-09 3.92508287763e-09 4.31018106372e-09 4.59631772525e-09 4.83360044112e-09 5.01215389804e-09 5.09520030342e-09 5.14897151499e-09 5.1055741355e-09 5.03287312853e-09 4.87292629837e-09 4.66978901172e-09 4.38886175803e-09 4.06112257104e-09 3.66871662676e-09 3.2643114861e-09 2.82267171848e-09 2.43583219057e-09 2.07498121803e-09 1.79526877686e-09 1.56441028135e-09 1.41010403799e-09 1.30877072285e-09 
1.44071211743e-09 1.46105743167e-09 1.53840323507e-09 1.67753073229e-09 1.86436399886e-09 2.1234663414e-09 2.40775204646e-09 2.77040219147e-09 3.11070775581e-09 3.51745517318e-09 3.84728907508e-09 4.19368181887e-09 4.45570782069e-09 4.67711184203e-09 4.84254582379e-09 4.92577268002e-09 4.97646918298e-09 4.93747827461e-09 4.86838476316e-09 4.71659726112e-09 4.52722250325e-09 4.26557866941e-09 3.96863295953e-09 3.61423510646e-09 3.255283948e-09 2.86546517948e-09 2.52129964086e-09 2.19364624666e-09 1.93587868142e-09 1.71873309666e-09 1.57203846449e-09 1.47447997154e-09 
1.72295494739e-09 1.7418011655e-09 1.80875981605e-09 1.93229669526e-09 2.09249520221e-09 2.31447185902e-09 2.55240659302e-09 2.8508003001e-09 3.13175279879e-09 3.45768021371e-09 3.73153257294e-09 4.01438854994e-09 4.23530581766e-09 4.42524843463e-09 4.56476093819e-09 4.64330828764e-09 4.68468819041e-09 4.65471046887e-09 4.59283132073e-09 4.46114694742e-09 4.2990912999e-09 4.07525750252e-09 3.82917527443e-09 3.53586106975e-09 3.24377706763e-09 2.92810743558e-09 2.64658343271e-09 2.37446709105e-09 2.15628068445e-09 1.9690689286e-09 1.84029606038e-09 1.75407706728e-09 
1.82316846647e-09 1.84130325781e-09 1.90472843958e-09 2.0225788974e-09 2.17331943094e-09 2.38225870919e-09 2.60328894742e-09 2.87974222297e-09 3.13846052164e-09 3.43729972233e-09 3.6899393473e-09 3.95131662501e-09 4.15711427005e-09 4.33579159037e-09 4.4666693547e-09 4.54265730915e-09 4.58161628294e-09 4.55405668545e-09 4.49531993105e-09 4.37046494672e-09 4.21826707117e-09 4.00787045091e-09 3.77983568617e-09 3.508070838e-09 3.23992773317e-09 2.95003872741e-09 2.6910529019e-09 2.43833792387e-09 2.23447223206e-09 2.05772686497e-09 1.93551140032e-09 1.85317724533e-09 
1.9685823238e-09 1.9856333397e-09 2.04300214782e-09 2.15108983731e-09 2.28715156133e-09 2.47549724449e-09 2.67305962385e-09 2.91761263317e-09 3.14746506686e-09 3.40886986083e-09 3.63372947057e-09 3.86420122553e-09 4.04844146968e-09 4.20957146805e-09 4.32679660783e-09 4.39803006554e-09 4.43219331815e-09 4.4088200452e-09 4.35465280422e-09 4.24162475414e-09 4.10443494078e-09 3.91496116828e-09 3.71245842833e-09 3.47110698615e-09 3.23493229541e-09 2.97959543587e-09 2.7507739305e-09 2.52600286463e-09 2.34314503243e-09 2.18339744601e-09 2.07187299532e-09 1.99667764197e-09 
2.01172489665e-09 2.02840498472e-09 2.08403608313e-09 2.18925201103e-09 2.32094790316e-09 2.50332094331e-09 2.69371302608e-09 2.92909320176e-09 3.14993926921e-09 3.40063799499e-09 3.61679969956e-09 3.83840257383e-09 4.01607442641e-09 4.17203200659e-09 4.28536392076e-09 4.35499112848e-09 4.3880065959e-09 4.36562776857e-09 4.3130030428e-09 4.20330834928e-09 4.07063859895e-09 3.8872917006e-09 3.69242085221e-09 3.46004704918e-09 3.23350224246e-09 2.9883404008e-09 2.76863077272e-09 2.55204821492e-09 2.3755120757e-09 2.22069020887e-09 2.11237861118e-09 2.03920347996e-09 
