# vtk DataFile Version 3.0
example test vtk file
ASCII
DATASET STRUCTURED_POINTS
DIMENSIONS 32 32 1
SPACING 0.0125 0.0125 1
ORIGIN 0 0 0
POINT_DATA 1024
SCALARS vorticity float1
LOOKUP_TABLE default
0.000272250295278 -0.000419638063877 -0.0011077307036 -0.00177260678852 -0.00239609110018 -0.00295510863294 -0.00342157218606 -0.00376378680028 -0.0039516236184 -0.00396444901632 -0.00379821256255 -0.003467579313 -0.00299867862682 -0.00242108277736 -0.00176233306229 -0.00104661776043 -0.000296555523719 0.000464796422456 0.0012129384746 0.00192220370419 0.00256605341961 0.00311767566618 0.00355015735888 0.0038378874354 0.00396103435562 0.00390979985595 0.00369031972326 0.0033237399871 0.0028394134292 0.00226803202931 0.00163645853531 0.000168747489442 
-2.06061045334e-05 -0.00041289047177 -0.00108729630197 -0.0017344139919 -0.00233433277561 -0.00286408905431 -0.00329810179978 -0.00361028696377 -0.00377792845541 -0.00378641729834 -0.00363290665023 -0.00332688319565 -0.0028873338925 -0.00233831134175 -0.0017052167899 -0.00101298448151 -0.000285964125215 0.000451437418992 0.0011742173569 0.00185668175758 0.00247273809727 0.00299649992775 0.00340338500672 0.00367206261148 0.0037873099512 0.00374312312548 0.00354464522939 0.00320746758504 0.00275430150013 0.00221064773228 0.00160127403759 -2.06061045334e-05 
-1.74745304522e-05 -0.000414342285506 -0.00109133166096 -0.00174130350078 -0.00234442611061 -0.0028776680717 -0.00331517089245 -0.00363035500807 -0.00379990325813 -0.00380874510562 -0.00365396187973 -0.00334539814335 -0.00290260276805 -0.00235010392055 -0.00171354318928 -0.00101788416799 -0.000287411233207 0.000453521511814 0.0011799088895 0.00186600628657 0.00248563161928 0.00301274775763 0.00342251705025 0.00369324211845 0.00380930500584 0.00376445837347 0.00356393411196 0.00322374470782 0.00276715132879 0.00222010624258 0.00160762216319 -1.74745304522e-05 
-7.80574382338e-06 -0.000418685881608 -0.0011034246344 -0.00176198126174 -0.00237477947962 -0.00291859958932 -0.00336674942848 -0.00369112826245 -0.00386654616542 -0.00387647838093 -0.0037177784561 -0.00340142424975 -0.0029487292394 -0.00238569123352 -0.00173866995206 -0.00103268871058 -0.000291808931548 0.000459783705148 0.00119707350512 0.00189415898722 0.00252459216507 0.00306189162849 0.00348045107299 0.00375744726943 0.00387602646238 0.00382916316502 0.00362235797928 0.00327294499503 0.00280590053373 0.00224856546637 0.00162668896939 -7.80574382338e-06 
8.70467083492e-06 -0.00042584030648 -0.00112337909379 -0.00179619628807 -0.00242519906525 -0.00298690921406 -0.00345325436688 -0.00379350143689 -0.00397912158539 -0.00399093968979 -0.00382539159225 -0.00349554736174 -0.00302592111855 -0.00244509020351 -0.00178058805085 -0.00105743436696 -0.000299225217328 0.000470169516661 0.00122570752868 0.00194121459917 0.0025898171144 0.00314433155568 0.00357787728752 0.00386568338445 0.00398867665468 0.00393837062177 0.00372071317592 0.00335542656154 0.00287054930555 0.00229583080658 0.00165823854933 8.70467083492e-06 
3.2789490079e-05 -0.000435665076619 -0.0011508508868 -0.00184349849066 -0.00249531630407 -0.00308259202779 -0.00357535775422 -0.00393899777849 -0.0041398260072 -0.0041544320125 -0.00397857412516 -0.00362872586257 -0.00313447366079 -0.0025282834824 -0.0018392628109 -0.00109218580388 -0.00030978685285 0.000484576841299 0.0012657965947 0.00200728555875 0.00268161423876 0.00326071174863 0.0037159416786 0.00401966180628 0.00414933641594 0.0040940462232 0.00386035710863 0.00347176502308 0.00296105276398 0.00236153479586 0.00170184790741 3.2789490079e-05 
6.52705103304e-05 -0.000447952356612 -0.00118532303141 -0.0019031913179 -0.0025845169318 -0.00320553418973 -0.00373394377379 -0.00412981502044 -0.00435193181004 -0.00437040008545 -0.00417990914094 -0.00380225339984 -0.00327468164259 -0.00263514498456 -0.00191460437049 -0.00113704576846 -0.000323702140719 0.000502838825475 0.00131730486889 0.00209250460763 0.00280036696319 0.00341188041794 0.00389623169417 0.00422185083164 0.00436108845731 0.0042991129402 0.00404325297752 0.00362271367889 0.00307724636867 0.00244506990751 0.00175686265923 6.52705103304e-05 
0.000107306506009 -0.000462416933776 -0.00122607276325 -0.00197426553056 -0.0026918357525 -0.00335538832898 -0.00393003065151 -0.00436888720685 -0.00462001598954 -0.00464369216015 -0.00443289916005 -0.00401768693558 -0.00344669427807 -0.00276532455721 -0.0020064280124 -0.00119217741531 -0.00034129933245 0.000524699417676 0.00138016412174 0.00219700383445 0.00294648155704 0.00359882275695 0.00412074310005 0.00447554518143 0.0046282141346 0.00455765416178 0.00427203419829 0.0038091311529 0.00321872694565 0.0025454888342 0.00182233518097 0.000107306506009 
0.000160133278985 -0.00047868515738 -0.00127213299172 -0.00205531548144 -0.00281581212188 -0.0035313861319 -0.0041646339889 -0.00465995570657 -0.00495030749135 -0.00498096883367 -0.00474211911973 -0.0042767130346 -0.00365028710363 -0.00291808021463 -0.00211440779469 -0.00125785079517 -0.00036308817294 0.000549781714377 0.0014542685747 0.00232089557164 0.00312031172867 0.00382255497837 0.00439181076942 0.00478494790797 0.00495649408773 0.0048752307898 0.00455008815476 0.00403185388435 0.00338467274779 0.00266136748347 0.00189694668357 0.000160133278985 
0.000224969230597 -0.000496284659135 -0.00132225254768 -0.00214444171757 -0.00295430151957 -0.00373206451855 -0.00443853214308 -0.00500763231818 -0.00535120719909 -0.00539133869727 -0.00511342103578 -0.00458090423229 -0.00388451201281 -0.00309204269651 -0.00223803085002 -0.00133453295874 -0.000389855487759 0.00057755029965 0.0015394860204 0.00246426576479 0.00332205383725 0.00408396228656 0.00471197464871 0.00515524786719 0.00535366359965 0.00525937525807 0.00488165383931 0.00429147362664 0.00357357852294 0.00279062651334 0.00197891719579 0.000224969230597 
0.000303022897444 -0.000514637499859 -0.00137486222911 -0.00223914815777 -0.00310424161756 -0.00395487398756 -0.00475186878974 -0.0054174147397 -0.00583406640567 -0.00588735811699 -0.00555419492484 -0.00493127987029 -0.00414717015089 -0.00328489393064 -0.00237656690538 -0.00142305420835 -0.000422809293987 0.000607271124531 0.00163570332407 0.00262720003882 0.00355160126072 0.00438355867718 0.00508373459291 0.00559265109447 0.00583010787117 0.00572037170609 0.0052719144144 0.00458795030623 0.00378287310459 0.00293031073934 0.00206591195895 0.000303022897444 
0.000394394833878 -0.000533060314286 -0.00142805705126 -0.00233624929982 -0.00326137925845 -0.00419563074231 -0.00510348758668 -0.00589556688435 -0.00641435997367 -0.00648663622566 -0.00607367666152 -0.00532751817981 -0.00443403441334 -0.00349293962103 -0.00252908101824 -0.00152490512672 -0.000463786832473 0.000637977384315 0.00174293782894 0.00280988081584 0.00380833405579 0.00472114401604 0.00550912280324 0.00610426901592 0.00639994254037 0.00627251616171 0.00572703278347 0.00491993873005 0.00400837986234 0.00307633489443 0.00215496000576 0.000394394833878 
0.000498892707083 -0.000550775854188 -0.00147960897526 -0.00243181366826 -0.00341998173489 -0.00444777271149 -0.00548983249996 -0.00644867713128 -0.0071134706281 -0.00721447902166 -0.00668325287137 -0.00576654266269 -0.00473773724582 -0.00371055894599 -0.00269454654239 -0.00164275758665 -0.000515528332502 0.000668460442722 0.00186157435066 0.00301282927902 0.00409078192773 0.00509534012037 0.00598899191145 0.00669764382692 0.00708273352458 0.00693620899988 0.00625400125136 0.00528361781629 0.00424358158765 0.00322322361834 0.00224241131006 0.000498892707083 
0.000612487139449 -0.000566940646845 -0.00152702774429 -0.0025211841665 -0.00357258784879 -0.00470139381666 -0.00590315926789 -0.00708250201735 -0.00796142772431 -0.00810837502508 -0.00739660815904 -0.00623997695956 -0.00504626064863 -0.00392952427232 -0.00287219695177 -0.00178137350146 -0.000581943124724 0.000697328152003 0.00199286629782 0.00323743901045 0.00439597245388 0.00550301687683 0.00652189355709 0.00737942068698 0.00790631318393 0.00774153553771 0.00685999948236 0.00567065712882 0.00447867920431 0.00336390989694 0.00232397243514 0.000612487139449 
0.000730264267592 -0.000580692642817 -0.0015676883109 -0.0025991325683 -0.00370991039426 -0.00494208204611 -0.00632869247663 -0.00779927851504 -0.00900114028456 -0.00922584832467 -0.00822930338777 -0.00672953447289 -0.00534108492134 -0.00413819740453 -0.00306254835769 -0.00194920138228 -0.000667969272477 0.000723216730638 0.00214012352615 0.00348710703751 0.00471783537521 0.00593870635825 0.00710245431673 0.00815207706117 0.00891154035674 0.00873458506388 0.00755055230406 0.00606469779496 0.00469953149194 0.00348971739595 0.0023948741614 0.000730264267592 
0.00083856357341 -0.00059121985115 -0.00159903816382 -0.00266021807348 -0.00382109306534 -0.00514971430746 -0.00674026631855 -0.00859181074711 -0.0102949536512 -0.0106586605358 -0.00919676306162 -0.00719860169992 -0.00559543379902 -0.00432056724663 -0.00327072392491 -0.00216123955575 -0.000777281551923 0.000745250989482 0.00231217498865 0.00376963139463 0.00504241011114 0.00639435602566 0.00771938791585 0.00900628615133 0.0101606269432 0.00998894461424 0.00832486436446 0.00643531033057 0.00488682879942 0.00359074099828 0.00245022966738 0.00083856357341 
0.000922495202559 -0.000597845282365 -0.00161888163607 -0.0026994135237 -0.00389466218074 -0.00529762991853 -0.00709404350209 -0.00943080434931 -0.0119346764983 -0.0125591615379 -0.0103079767477 -0.00757653067303 -0.00577391617502 -0.00445445222295 -0.00351873232369 -0.00244426005936 -0.000900475975165 0.000763219123471 0.00253567545305 0.00410234637447 0.00533125941005 0.00686053868531 0.00835398316744 0.0099033556031 0.0117520805609 0.0116271339359 0.00916462199446 0.00672777522897 0.00501650223644 0.00365693324991 0.00248562050037 0.000922495202559 
0.000958081576035 -0.000600115135608 -0.0016257058487 -0.00271300401259 -0.00392070011998 -0.00535310099203 -0.00725042755544 -0.00985887113239 -0.0128610273588 -0.0136584280499 -0.010905077583 -0.00773331704961 -0.00584077000301 -0.0045072649962 -0.00365922947208 -0.00261001437969 -0.000963779675956 0.00077116322034 0.00266684511653 0.00428636389107 0.00546105371402 0.00709757339164 0.0086760197752 0.0103592091262 0.0126563912522 0.0125691593111 0.00960003180712 0.00684626360528 0.00506385658816 0.00368019223912 0.00249786992495 0.000958081576035 
0.000923007232442 -0.000597868530848 -0.00161896489326 -0.0026995832619 -0.00389498715255 -0.00529831404577 -0.00709593570331 -0.00943593806358 -0.0119459097405 -0.0125732114819 -0.0103171744627 -0.00758088696285 -0.00577684125783 -0.00445683364438 -0.00352230720947 -0.0024479763223 -0.000902102443074 0.00076320135091 0.00253816044659 0.00410608122915 0.00533431156316 0.00686522992781 0.00835996219088 0.00991114240824 0.011765686572 0.0116405619378 0.00917067967236 0.00672944884198 0.00501718049545 0.00365727040086 0.00248580070729 0.000923007232442 
0.000839270373429 -0.000591264641751 -0.00159919808725 -0.00266054043541 -0.00382169219637 -0.00515087076476 -0.00674271123904 -0.00859687733478 -0.0103038408338 -0.0106690604006 -0.00920433522918 -0.00720296006445 -0.00559835857074 -0.0043229386736 -0.00327342020801 -0.00216391964507 -0.000778720153126 0.000745296301114 0.00231392821568 0.00377258003585 0.00504562394035 0.00639862827336 0.00772487548757 0.00901348984924 0.010171030955 0.0099990994023 0.00833066451236 0.00643781221697 0.00488802239086 0.00359136955201 0.00245057323984 0.000839270373429 
0.000731142217386 -0.000580755863237 -0.00156791312699 -0.00259957911032 -0.00371071383474 -0.00494352862786 -0.0063313591765 -0.00780400311833 -0.00900836995648 -0.0092340119695 -0.00823581008911 -0.00673386151374 -0.00534412899541 -0.00414063196822 -0.00306489220739 -0.00195130828757 -0.000669137340353 0.000723302622301 0.00214155347937 0.00348961403493 0.00472095206886 0.00594272841001 0.00710757362537 0.00815861578797 0.00891989337724 0.00874261973973 0.00755584458046 0.00606753265203 0.00470105564123 0.00349056787552 0.00239535212744 0.000731142217386 
0.000613347233262 -0.000567018249961 -0.00152730249665 -0.00252172129006 -0.00357352441706 -0.00470298695084 -0.00590583941612 -0.00708677436979 -0.00796739432318 -0.00811495264212 -0.00740218459433 -0.00624405427092 -0.00504926209273 -0.00393190679644 -0.00287428301394 -0.00178308542817 -0.000582865731175 0.000697451505048 0.0019940961249 0.00323962348817 0.00439886721878 0.00550673513979 0.00652656809907 0.00738520182258 0.0079131546881 0.00774806151915 0.00686471648595 0.0056735405925 0.0044803759359 0.0033649077369 0.00232454965025 0.000613347233262 
0.000499724171836 -0.000550863355563 -0.00147991745505 -0.00243240734539 -0.003420987598 -0.00444940552849 -0.0054924009324 -0.00645247323278 -0.00711844676244 -0.00721987620892 -0.00668802737956 -0.00577026903891 -0.00474058661739 -0.00371281572289 -0.00269641029634 -0.00164418085927 -0.000516258154359 0.000668611553908 0.00186265586437 0.00301475429466 0.00409341678126 0.00509872239184 0.0059931884312 0.00670268423864 0.00708841285404 0.00694160428765 0.00625815262106 0.00528639051168 0.00424533036505 0.00322430010701 0.00224305149657 0.000499724171836 
0.000395135760339 -0.000533153216589 -0.00142838331595 -0.00233686805676 -0.00326240121618 -0.00419722685973 -0.00510587243094 -0.00589890014759 -0.00641853723376 -0.00649111636699 -0.00607775890237 -0.00533085461278 -0.00443666438768 -0.00349502486095 -0.00253074010538 -0.00152610525411 -0.000464369261993 0.000638144849663 0.00174389631674 0.00281158149193 0.00381069943713 0.00472417641068 0.00551283799662 0.00610862454432 0.00640469500932 0.00627702475034 0.00573065538596 0.00492251422287 0.00401009425493 0.00307743196675 0.00215562915678 0.000395135760339 
0.000303672123737 -0.000514731600486 -0.00137519161915 -0.00223976461176 -0.0031052374462 -0.00395638056129 -0.0047540312502 -0.00542031273681 -0.00583758187124 -0.00589109868392 -0.0055576747141 -0.00493421966936 -0.00414954339527 -0.0032867809556 -0.00237803258733 -0.00142407285376 -0.000423278132165 0.000607444396057 0.0016365520567 0.00262869723842 0.00355369842134 0.00438624029086 0.00508698275375 0.0055963865414 0.00583409759189 0.00572415762101 0.00527505139127 0.00459028422284 0.00378449363386 0.00293138200764 0.00206658020356 0.000303672123737 
0.000225521904923 -0.000496376236978 -0.00132257224728 -0.00214503309296 -0.0029552388957 -0.00373344604847 -0.0044404533936 -0.00501012596151 -0.00535416066017 -0.00539446322463 -0.00511637062607 -0.00458345669321 -0.00388661104243 -0.00309371767492 -0.00223931172488 -0.00133539750559 -0.000390234905773 0.000577720548062 0.00154023221502 0.00246557292287 0.00332388869801 0.00408630037622 0.00471477878455 0.00515842486049 0.00535700842432 0.00526255281592 0.0048843462694 0.00429354551339 0.00357506556348 0.00279163637008 0.00197955951017 0.000225521904923 
0.000160591356371 -0.000478771058251 -0.00127243223982 -0.00205586349477 -0.00281666701121 -0.00353261947549 -0.0041663068804 -0.00466207443233 -0.00495277269114 -0.00498356566189 -0.00474459616885 -0.00427889448242 -0.00365210677239 -0.00291953765946 -0.0021155111687 -0.0012585798627 -0.000363395299439 0.000549941936512 0.00145491631743 0.00232202214669 0.00312189225942 0.00382456124135 0.00439419689379 0.00478762056153 0.00495928062028 0.00487788206686 0.00455237213224 0.00403365659207 0.00338600069288 0.00266228942703 0.00189754286228 0.000160591356371 
0.000107682415939 -0.000462494581548 -0.00122634282729 -0.00197475593668 -0.00269259073282 -0.00335645890546 -0.00393145454206 -0.004370657021 -0.00462204802705 -0.00464582574887 -0.00443494942533 -0.00401951581412 -0.00344823655356 -0.00276656411758 -0.0020073603989 -0.00119278408354 -0.000341546327134 0.000524844254666 0.00138071590114 0.00219795703425 0.00294781639461 0.00360051067777 0.00412273681968 0.00447775905089 0.00463050703946 0.00455983939213 0.004273940155 0.00381066462445 0.00321987978935 0.00254630364467 0.0018228693991 0.000107682415939 
6.55663551107e-05 -0.000448019717267 -0.00118555704207 -0.00190361331678 -0.00258515967471 -0.003206433189 -0.00373512133337 -0.00413125786943 -0.00435357205732 -0.00437211802784 -0.00418156865424 -0.00380374759832 -0.00327595210212 -0.00263616918518 -0.00191537160998 -0.00113753947633 -0.00032389767053 0.000502964292242 0.00131776236929 0.00209329021779 0.00280146455745 0.00341326347576 0.00389785629169 0.0042236431702 0.00436293638699 0.00430087688538 0.00404480586171 0.00362398130379 0.00307821450242 0.00244576397394 0.00175732285808 6.55663551107e-05 
3.30187225897e-05 -0.000435720597595 -0.00115104360813 -0.00184384411907 -0.00249583830237 -0.003083314407 -0.00357629300232 -0.00394013149968 -0.00414110540106 -0.00415576948112 -0.00397987085291 -0.00362990128112 -0.00313547919908 -0.00252909615107 -0.00183987002321 -0.00109257346655 -0.000309937095929 0.000484680053486 0.00126616107669 0.00200790830544 0.00268248227847 0.00326180225476 0.00371721710726 0.00402106224496 0.00415077586656 0.0040954221745 0.00386157682871 0.00347277149171 0.00296183071394 0.0023620987121 0.00170222514993 3.30187225897e-05 
0.0 -0.00042588284822 -0.00112352668125 -0.00179645986764 -0.00242559462215 -0.00298745228802 -0.0034539514736 -0.00379433992959 -0.00398006283779 -0.00399192229859 -0.0038263466613 -0.00349641716228 -0.00302666847872 -0.00244569539454 -0.00178103952445 -0.00105772103021 -0.000299334529364 0.000470248451307 0.00122597998442 0.00194167827746 0.00259046213059 0.00314513992723 0.00357881969323 0.00386671466511 0.00398973450876 0.00393938296136 0.00372161506566 0.00335617659829 0.00287113416499 0.00229625825938 0.00165852642977 0.0 
0.0 -0.000419638063877 -0.0011077307036 -0.00177260678852 -0.00239609110018 -0.00295510863294 -0.00342157218606 -0.00376378680028 -0.0039516236184 -0.00396444901632 -0.00379821256255 -0.003467579313 -0.00299867862682 -0.00242108277736 -0.00176233306229 -0.00104661776043 -0.000296555523719 0.000464796422456 0.0012129384746 0.00192220370419 0.00256605341961 0.00311767566618 0.00355015735888 0.0038378874354 0.00396103435562 0.00390979985595 0.00369031972326 0.0033237399871 0.0028394134292 0.00226803202931 0.00163645853531 0.0 
