# vtk DataFile Version 3.0
example test vtk file
ASCII
DATASET STRUCTURED_POINTS
DIMENSIONS 32 32 1
SPACING 0.0125 0.0125 1
ORIGIN 0 0 0
POINT_DATA 1024
SCALARS vorticity float1
LOOKUP_TABLE default
-1.42656484802e-15 -1.36009812599e-10 -2.99233968973e-10 -4.64113464524e-10 -6.60521340586e-10 -8.29493156067e-10 -1.02633437334e-09 -1.13377162103e-09 -1.2250872046e-09 -1.20695895312e-09 -1.09511858755e-09 -9.70438243747e-10 -7.41259956084e-10 -5.79626602312e-10 -3.53325318119e-10 -1.81501564174e-10 -1.14990769502e-11 1.62180530112e-10 3.13668528472e-10 5.03583437859e-10 6.77392713479e-10 8.68963129402e-10 1.04076893284e-09 1.15994233854e-09 1.22985176828e-09 1.1981633228e-09 1.08068402805e-09 9.13593183221e-10 7.14859455828e-10 5.22781541787e-10 3.3889075862e-10 -2.8747519747e-09 
-6.7425733998e-09 -1.95586842769e-14 -5.84041142611e-14 -1.47099805774e-13 -3.20140895203e-13 -5.94623438632e-13 -9.48623629881e-13 -1.33955653619e-12 -1.62819789822e-12 -1.59581585424e-12 -1.25976891827e-12 -8.42581473292e-13 -5.01410803579e-13 -2.63672065993e-13 -7.30934170272e-14 5.16765649111e-14 8.08058052587e-14 7.16281626114e-14 8.41508317693e-14 1.58449003161e-13 3.27291031581e-13 6.05972636089e-13 9.74370347312e-13 1.39162601455e-12 1.70683417988e-12 1.66082297749e-12 1.23402220066e-12 7.14155674226e-13 3.36988104e-13 1.35246266852e-13 4.73466995438e-14 -6.7425733998e-09 
-7.18653273078e-09 -4.00228072703e-14 -1.24186656936e-13 -3.26161001377e-13 -7.36115772656e-13 -1.40182143561e-12 -2.26546581681e-12 -3.24806850459e-12 -4.00900703835e-12 -3.92589610838e-12 -3.04975362208e-12 -1.9986642287e-12 -1.17078797529e-12 -6.17323693101e-13 -1.54307279702e-13 1.5413488327e-13 2.06151815701e-13 1.65078141586e-13 1.82250189334e-13 3.50140121046e-13 7.50568534759e-13 1.42580055535e-12 2.32352934929e-12 3.3731238389e-12 4.21054911752e-12 4.10600404682e-12 2.99169008968e-12 1.66952183622e-12 7.53251054693e-13 2.88181300579e-13 9.62437472723e-14 -7.18653273078e-09 
-7.4496197654e-09 -8.83220430155e-14 -2.84703232815e-13 -7.79388091538e-13 -1.82426869986e-12 -3.56135618862e-12 -5.81803424414e-12 -8.46006501612e-12 -1.06098355825e-11 -1.03801303598e-11 -7.93322867491e-12 -5.09760792786e-12 -2.94235012954e-12 -1.56568704615e-12 -3.51184859385e-13 4.748343926e-13 5.6092229343e-13 4.09044831676e-13 4.24920265229e-13 8.33836739372e-13 1.85571367106e-12 3.61580483651e-12 5.95825127672e-12 8.7807878048e-12 1.116030576e-11 1.09096313846e-11 7.79301164249e-12 4.19293546654e-12 1.80996480321e-12 6.61014584712e-13 2.10967826955e-13 -7.4496197654e-09 
-8.40045545549e-09 -1.95315505913e-13 -6.55347124185e-13 -1.87445433592e-12 -4.56363860677e-12 -9.15234948851e-12 -1.50922987366e-11 -2.22551915951e-11 -2.84153686565e-11 -2.77687940867e-11 -2.08471121683e-11 -1.31240688179e-11 -7.4616137344e-12 -4.03919722117e-12 -8.02126564928e-13 1.45535113224e-12 1.53610640542e-12 1.02011812967e-12 9.94250346279e-13 1.99812998261e-12 4.63201892007e-12 9.27602513529e-12 1.54312019588e-11 2.30799942187e-11 2.99279162452e-11 2.93393764491e-11 2.05082089461e-11 1.06050081851e-11 4.36813824368e-12 1.52013658839e-12 4.63223342817e-13 -8.40045545549e-09 
-8.80815339763e-09 -4.25555742534e-13 -1.49156924146e-12 -4.47645565143e-12 -1.13917654678e-11 -2.35578826854e-11 -3.91531260631e-11 -5.85561887181e-11 -7.63379582947e-11 -7.44950287374e-11 -5.48084481876e-11 -3.37594514592e-11 -1.88824814312e-11 -1.05055681532e-11 -1.8102965955e-12 4.43539961022e-12 4.19658281e-12 2.52877943399e-12 2.30039391883e-12 4.75305088331e-12 1.15378137696e-11 2.38344779174e-11 3.99619507405e-11 6.06594124095e-11 8.04825584311e-11 7.91691548891e-11 5.39996235103e-11 2.67055063841e-11 1.04472328563e-11 3.45162307814e-12 1.00147191819e-12 -8.80815339763e-09 
-9.99886806365e-09 -9.08241614203e-13 -3.33964237234e-12 -1.05723067667e-11 -2.82989559463e-11 -6.06640170278e-11 -1.01415124633e-10 -1.53818697829e-10 -2.05504681011e-10 -2.00177204874e-10 -1.43918836439e-10 -8.66112788844e-11 -4.75608163713e-11 -2.75570968083e-11 -4.01636938371e-12 1.34719759498e-11 1.14108886686e-11 6.20636570724e-12 5.23667079006e-12 1.11779961867e-11 2.86034470736e-11 6.12697064478e-11 1.03312153051e-10 1.59116821922e-10 2.16803896439e-10 2.14132120177e-10 1.42021808022e-10 6.67525500675e-11 2.46578943876e-11 7.69836799157e-12 2.11934096596e-12 -9.99886806365e-09 
-1.02862972338e-08 -1.89046100393e-12 -7.32704196651e-12 -2.46169684522e-11 -6.98454993956e-11 -1.56337656767e-10 -2.6217913144e-10 -4.03079302271e-10 -5.54429449567e-10 -5.38769308957e-10 -3.77210358411e-10 -2.21510111433e-10 -1.19038281945e-10 -7.30499742373e-11 -8.72571603265e-12 4.08678863928e-11 3.08219421159e-11 1.50316106766e-11 1.1681863373e-11 2.59099063043e-11 7.04623253292e-11 1.57630594619e-10 2.66533952846e-10 4.16220451943e-10 5.8501884358e-10 5.80586839616e-10 3.72855537004e-10 1.6525849325e-10 5.72426679858e-11 1.67983560539e-11 4.37089462619e-12 -1.02862972338e-08 
-1.08428278888e-08 -3.8184743821e-12 -1.56781471464e-11 -5.62939474756e-11 -1.70921635634e-10 -4.03511623948e-10 -6.76357595647e-10 -1.05280671487e-09 -1.49953623967e-09 -1.45260542448e-09 -9.862475629e-10 -5.64611951043e-10 -2.95433149019e-10 -1.96176813528e-10 -1.84781147695e-11 1.24041569905e-10 8.24910344696e-11 3.57783202885e-11 2.54144717702e-11 5.89706287026e-11 1.72129566348e-10 4.06188305175e-10 6.8609392027e-10 1.08476656077e-09 1.5815602332e-09 1.57845322333e-09 9.76511238276e-10 4.0412762506e-10 1.30177231236e-10 3.56924875443e-11 8.74179014571e-12 -1.08428278888e-08 
-1.03172059778e-08 -7.43790231296e-12 -3.25183675816e-11 -1.25761902017e-10 -4.13428832466e-10 -1.04413321923e-09 -1.74099286862e-09 -2.73777074093e-09 -4.06759435443e-09 -3.92390372609e-09 -2.57035176786e-09 -1.43421153924e-09 -7.24780548478e-10 -5.35091057164e-10 -3.79138747549e-11 3.77274378348e-10 2.1794170598e-10 8.32161337732e-11 5.35815505752e-11 1.31101284625e-10 4.15701423419e-10 1.04947260184e-09 1.76205605161e-09 2.81354897239e-09 4.2846370266e-09 4.30448157418e-09 2.54928858486e-09 9.72516077081e-10 2.88422613191e-10 7.33955950057e-11 1.68506917613e-11 -1.03172059778e-08 
-7.97711101712e-09 -1.38598333648e-11 -6.48361883065e-11 -2.72385909574e-10 -9.83605497686e-10 -2.71234921808e-09 -4.47164145448e-09 -7.07724407264e-09 -1.10716253841e-08 -1.06215710863e-08 -6.67045480827e-09 -3.63134535721e-09 -1.74897312155e-09 -1.48596828074e-09 -7.47662771687e-11 1.15141179651e-09 5.65182308429e-10 1.87597333779e-10 1.08541600643e-10 2.82563123988e-10 9.87681944004e-10 2.7225264325e-09 4.51534686682e-09 7.25098157306e-09 1.16351617232e-08 1.17787508834e-08 6.62674939593e-09 2.29025084521e-09 6.17823996909e-10 1.44873768738e-10 3.10608648319e-11 -7.97711101712e-09 
-5.35030663339e-09 -2.4450975071e-11 -1.22846855757e-10 -5.65478359992e-10 -2.28300662752e-09 -7.08527730602e-09 -1.14623538994e-08 -1.81467668037e-08 -3.02583907001e-08 -2.88160750278e-08 -1.72130109502e-08 -9.17064022854e-09 -4.11729696747e-09 -4.20986307573e-09 -1.40128974278e-10 3.53006290161e-09 1.42544409095e-09 4.04943557185e-10 2.08773937235e-10 5.83813763171e-10 2.28991299147e-09 7.1036127092e-09 1.15482809809e-08 1.85272593858e-08 3.16809958906e-08 3.23556687381e-08 1.71270838687e-08 5.23221853295e-09 1.2651802225e-09 2.71441380141e-10 5.42018928003e-11 -5.35030663339e-09 
4.09639349877e-09 -4.02971403345e-11 -2.17645473076e-10 -1.10532497958e-09 -5.09422878213e-09 -1.86497812213e-08 -2.9338586166e-08 -4.60062535903e-08 -8.30920316085e-08 -7.83668410983e-08 -4.40784047034e-08 -2.31333184633e-08 -9.31644043853e-09 -1.21841959989e-08 -2.45735089275e-10 1.088247958e-08 3.4401203952e-09 8.21150609323e-10 3.74977849589e-10 1.13611331493e-09 5.10515690805e-09 1.86805695566e-08 2.94959185425e-08 4.67871070593e-08 8.6527591863e-08 8.92640697599e-08 4.39210723269e-08 1.14244479973e-08 2.43439180358e-09 4.7532553293e-10 8.84027127619e-11 4.09639349877e-09 
9.37770202959e-09 -6.10376126613e-11 -3.52506770033e-10 -1.97519050473e-09 -1.06080175597e-08 -4.95807532314e-08 -7.50586889785e-08 -1.14767466319e-07 -2.29470446258e-07 -2.13675259738e-07 -1.11686365621e-07 -5.84472631074e-08 -1.96608659519e-08 -3.60442790384e-08 -3.94514733453e-10 3.37600193018e-08 7.68906974492e-09 1.51530901425e-09 6.14332555265e-10 2.02254914968e-09 1.06239654688e-08 4.96281118764e-08 7.53205147638e-08 1.1622173772e-07 2.37152781425e-07 2.47456409374e-07 1.11424539836e-07 2.3164483425e-08 4.28024770746e-09 7.61499356028e-10 1.32688948221e-10 9.37770202959e-09 
2.81585591685e-08 -8.3524167156e-11 -5.0707119269e-10 -3.06771070453e-09 -1.91448467429e-08 -1.33466178454e-07 -1.92279770371e-07 -2.79547594717e-07 -6.37943848778e-07 -5.84207365016e-07 -2.7879324426e-07 -1.48595294519e-07 -3.58737048565e-08 -1.08956935464e-07 -5.64001543648e-10 1.05453949223e-07 1.4652791633e-08 2.40658036551e-09 8.90721552854e-10 3.13323420293e-09 1.91660569763e-08 1.33531701952e-07 1.92663420732e-07 2.81870650915e-07 6.52587606351e-07 6.89689032734e-07 2.784095939e-07 4.07250471043e-08 6.56497947728e-09 1.08668804925e-09 1.80351183485e-10 2.81585591685e-08 
3.01434008067e-08 -1.02270659187e-10 -6.34433686459e-10 -3.84881747724e-09 -2.22654737508e-08 -1.09031256995e-07 -1.64121510187e-07 -2.50665562803e-07 -5.09076984112e-07 -4.7331313165e-07 -2.44444497992e-07 -1.27306070347e-07 -4.150904355e-08 -8.05321084022e-08 -7.03744109098e-10 7.61431453735e-08 1.66305685733e-08 3.02184396856e-09 1.11823923761e-09 3.92957592827e-09 2.22909999095e-08 1.09112015446e-07 1.64605315738e-07 2.53585136113e-07 5.2569661947e-07 5.49489332141e-07 2.43960692441e-07 4.81295380958e-08 8.24424667465e-09 1.35557615115e-09 2.19938557944e-10 3.01434008067e-08 
4.0025327996e-08 -1.13081414632e-10 -7.25674675812e-10 -4.67817360648e-09 -3.0564292767e-08 -2.01546475043e-07 -2.92221310334e-07 -4.2948225152e-07 -9.62830922e-07 -8.84008225235e-07 -4.26607698214e-07 -2.25487566309e-07 -5.74484028813e-08 -1.62352247029e-07 -8.0186208102e-10 1.57065353468e-07 2.37629510382e-08 3.73267157172e-09 1.28526080459e-09 4.76797175924e-09 3.05920448635e-08 2.01636273196e-07 2.92780896463e-07 4.33101841677e-07 9.86581944731e-07 1.04110930178e-06 4.26048112085e-07 6.4677101452e-08 9.91860532227e-09 1.54178217163e-09 2.42275952248e-10 4.0025327996e-08 
4.39738707715e-08 -1.09113546338e-10 -7.07613923603e-10 -4.70229828475e-09 -3.31533887711e-08 -2.60021544797e-07 -3.703503405e-07 -5.33331611835e-07 -1.25414132328e-06 -1.14480288871e-06 -5.34863671458e-07 -2.85222926376e-07 -6.26004132002e-08 -2.17474729873e-07 -7.81049784257e-10 2.1218185944e-07 2.63402538004e-08 3.78045357177e-09 1.25501274569e-09 4.78899881205e-09 3.31800958739e-08 2.60108245325e-07 3.70897739322e-07 5.37002951861e-07 1.2804701008e-06 1.3570191369e-06 5.34316272636e-07 6.92486376343e-08 9.9161510474e-09 1.50044113092e-09 2.3365096217e-10 4.39738707715e-08 
2.2727243625e-08 -8.90434477932e-11 -5.48121099026e-10 -3.31461971647e-09 -1.92916071613e-08 -9.63260792604e-08 -1.44575484574e-07 -2.20200178762e-07 -4.5049548349e-07 -4.18444410749e-07 -2.15019045295e-07 -1.12099734674e-07 -3.59786292571e-08 -7.16370216114e-08 -6.08594555619e-10 6.78544333987e-08 1.44373590104e-08 2.60009929296e-09 9.64920709372e-10 3.38474692806e-09 1.9313979661e-08 9.6396206472e-08 1.44992284184e-07 2.22711234607e-07 4.64923285043e-07 4.86327938019e-07 2.14602245685e-07 4.16350243473e-08 7.1006536523e-09 1.17231128418e-09 1.91794945273e-10 2.2727243625e-08 
1.48945913298e-08 -6.31188817199e-11 -3.59894131924e-10 -1.93893865782e-09 -9.45706154923e-09 -3.61529596806e-08 -5.6532291002e-08 -8.86012718157e-08 -1.6293172156e-07 -1.53373916716e-07 -8.50669507193e-08 -4.43767263464e-08 -1.73906001283e-08 -2.41080398138e-08 -4.0338410724e-10 2.1851466342e-08 6.57686956314e-09 1.46932402364e-09 6.25998181857e-10 1.98789034356e-09 9.4735945895e-09 3.62019113663e-08 5.6798395052e-08 9.00074769576e-08 1.69501603691e-07 1.75247263488e-07 8.48008466694e-08 2.10482227469e-08 4.2343028278e-09 7.79536214334e-10 1.37280057307e-10 1.48945913298e-08 
7.38025815917e-10 -4.01522469929e-11 -2.10993977821e-10 -1.01742666561e-09 -4.2851336764e-09 -1.37119414839e-08 -2.20989760595e-08 -3.50382694524e-08 -5.92717448385e-08 -5.63646296864e-08 -3.32776214567e-08 -1.7604419826e-08 -7.76727965192e-09 -8.29262167807e-09 -2.39106451765e-10 7.08232743425e-09 2.75148686915e-09 7.41817853519e-10 3.6176933533e-10 1.04797108155e-09 4.2961509748e-09 1.37424858998e-08 2.2249751417e-08 3.57399350589e-08 6.20186427629e-08 6.34618715973e-08 3.31268460992e-08 9.77496789262e-09 2.26246650467e-09 4.63169744709e-10 8.83310942569e-11 7.38025815917e-10 
-4.29529145006e-09 -2.35182521179e-11 -1.141900623e-10 -4.98022758265e-10 -1.8585642808e-09 -5.24280807893e-09 -8.62657247225e-09 -1.36899910432e-08 -2.16686605895e-08 -2.07649456128e-08 -1.29124620011e-08 -6.97751776739e-09 -3.32061827737e-09 -2.91453953352e-09 -1.30914912982e-10 2.30858457355e-09 1.09729815694e-09 3.48724412562e-10 1.9274725803e-10 5.15528364338e-10 1.86531957697e-09 5.260313685e-09 8.70512966798e-09 1.40151972036e-08 2.27631943155e-08 2.30829148874e-08 1.28339048054e-08 4.31683672628e-09 1.12479552922e-09 2.53858492416e-10 5.23577172526e-11 -4.29529145006e-09 
-9.0370127467e-09 -1.29230121076e-11 -5.82859876337e-11 -2.32464402541e-10 -7.84633597113e-10 -2.01660260413e-09 -3.36082781282e-09 -5.3028909332e-09 -7.95483306083e-09 -7.66739931088e-09 -4.98037970222e-09 -2.75862229026e-09 -1.38186999366e-09 -1.04538339167e-09 -6.76070036799e-11 7.56122762182e-10 4.24729433622e-10 1.56206236704e-10 9.67828735508e-11 2.41861484883e-10 7.88507032264e-10 2.02599968647e-09 3.39932469873e-09 5.44617415779e-09 8.37800931862e-09 8.42905572849e-09 4.9418828163e-09 1.84428556572e-09 5.31644042917e-10 1.31046667128e-10 2.91101177628e-11 -9.0370127467e-09 
-1.0610782621e-08 -6.75249939422e-12 -2.84640407557e-11 -1.0487275444e-10 -3.25386557425e-10 -7.78935683044e-10 -1.30645148828e-09 -2.04121200463e-09 -2.93068256236e-09 -2.83714878448e-09 -1.91236155633e-09 -1.08709782455e-09 -5.64925279969e-10 -3.81933087993e-10 -3.33944425247e-11 2.48564486602e-10 1.61172611014e-10 6.76193391076e-11 4.64758690011e-11 1.09664356299e-10 3.27489743114e-10 7.83727284902e-10 1.32446331653e-09 2.10207884435e-09 3.09103082811e-09 3.08880712854e-09 1.89434972808e-09 7.69781038916e-10 2.42125562781e-10 6.46163023632e-11 1.53826142792e-11 -1.0610782621e-08 
-1.08258255874e-08 -3.38863926721e-12 -1.34318415526e-11 -4.61275884557e-11 -1.33267244503e-10 -3.01712775096e-10 -5.06715474249e-10 -7.82067570354e-10 -1.08296571015e-09 -1.05186040513e-09 -7.31824092668e-10 -4.26898386577e-10 -2.28110758094e-10 -1.41802485678e-10 -1.59313948088e-11 8.19083988022e-11 6.03287484986e-11 2.85493301693e-11 2.15617441017e-11 4.84723591342e-11 1.34359158335e-10 3.04057545774e-10 5.14845376798e-10 8.07228261256e-10 1.14287708653e-09 1.13542408235e-09 7.23694190119e-10 3.15829247777e-10 1.07196091497e-10 3.0733346878e-11 7.80149225976e-12 -1.08258255874e-08 
-1.08066347869e-08 -1.64543462373e-12 -6.1683477478e-12 -1.98990336405e-11 -5.40887074481e-11 -1.17063350104e-10 -1.96107585227e-10 -2.98604195507e-10 -4.01215429284e-10 -3.90665182765e-10 -2.79333070085e-10 -1.67062815785e-10 -9.1287155294e-11 -5.33650736564e-11 -7.39191758715e-12 2.70155707832e-11 2.23635764884e-11 1.18306933346e-11 9.73481302906e-12 2.10086750615e-11 5.46348348305e-11 1.18172991525e-10 1.99674050509e-10 3.08789454218e-10 4.23375888842e-10 4.18534340519e-10 2.75766604804e-10 1.27898757899e-10 4.64201087953e-11 1.42010157705e-11 3.82545230583e-12 -1.08066347869e-08 
-9.68134450058e-09 -7.7751574634e-13 -2.77125849864e-12 -8.45476548703e-12 -2.18026356289e-11 -4.54598770999e-11 -7.5744187644e-11 -1.13716360292e-10 -1.48970947778e-10 -1.45330609708e-10 -1.06409652994e-10 -6.51664123244e-11 -3.62873130753e-11 -2.03055038988e-11 -3.35294102772e-12 8.90318421362e-12 8.23220318153e-12 4.83349912264e-12 4.30025940102e-12 8.9655916163e-12 2.20673469251e-11 4.59707032292e-11 7.72731885464e-11 1.17772343668e-10 1.57107575733e-10 1.54660486058e-10 1.04880652091e-10 5.12697264692e-11 1.97493458691e-11 6.40881804349e-12 1.82394012539e-12 -9.68134450058e-09 
-9.23237394941e-09 -3.59162057174e-13 -1.22298668912e-12 -3.54917203224e-12 -8.74185660621e-12 -1.76595139272e-11 -2.92030121786e-11 -4.32242816598e-11 -5.5421145439e-11 -5.41468010197e-11 -4.04764598838e-11 -2.53453858336e-11 -1.43504614135e-11 -7.79412646354e-12 -1.49279608868e-12 2.9257584261e-12 3.01496381286e-12 1.95343794903e-12 1.86632218978e-12 3.77899401377e-12 8.86680569615e-12 1.78893359088e-11 2.98463476793e-11 4.48185575516e-11 5.83924187917e-11 5.72803037266e-11 3.98331243831e-11 2.03877852532e-11 8.28296561825e-12 2.8365258832e-12 8.49460588018e-13 -9.23237394941e-09 
-8.108250277e-09 -1.6288216644e-13 -5.32111390948e-13 -1.47612580184e-12 -3.491691003e-12 -6.86220444916e-12 -1.12454060842e-11 -1.64125861125e-11 -2.06602905883e-11 -2.02087925298e-11 -1.53849098861e-11 -9.83570776873e-12 -5.65442379777e-12 -3.01312434805e-12 -6.54753273259e-13 9.56428346578e-13 1.10037106977e-12 7.83212198198e-13 7.98760272588e-13 1.57760546044e-12 3.54939053069e-12 6.96368410779e-12 1.15120549659e-11 1.70329161443e-11 2.1741174718e-11 2.12641911914e-11 1.51182610045e-11 8.05849941683e-12 3.4349560106e-12 1.23591599613e-12 3.88104391602e-13 -8.108250277e-09 
-7.70685010198e-09 -7.30259427205e-14 -2.29651187187e-13 -6.11317675642e-13 -1.39447934159e-12 -2.67392737302e-12 -4.33721147583e-12 -6.24334556576e-12 -7.7345269591e-12 -7.57267271606e-12 -5.85959964299e-12 -3.81975793587e-12 -2.2278138494e-12 -1.17451448696e-12 -2.84666367327e-13 3.1033633793e-13 4.0142479491e-13 3.13021909147e-13 3.39134349785e-13 6.55587396809e-13 1.42073876915e-12 2.71819709425e-12 4.44669463846e-12 6.4833415321e-12 8.12741588715e-12 7.92950651253e-12 5.75011648044e-12 3.17865845185e-12 1.4157765656e-12 5.33415002801e-13 1.75183204746e-13 -7.70685010198e-09 
0.0 -3.31618695507e-14 -1.00581859578e-13 -2.57453430697e-13 -5.6767543044e-13 -1.06361865204e-12 -1.7055158465e-12 -2.42118875853e-12 -2.9565491979e-12 -2.89703032594e-12 -2.27558120146e-12 -1.51159163376e-12 -8.94356569491e-13 -4.69556302046e-13 -1.25534475133e-13 1.00559229008e-13 1.48776150886e-13 1.27224697733e-13 1.46057625004e-13 2.76982148651e-13 5.79749038798e-13 1.08314737007e-12 1.75099161196e-12 2.51525158658e-12 3.10156887584e-12 3.01969851065e-12 2.23010543599e-12 1.27533190299e-12 5.92243605342e-13 2.33296571211e-13 8.00587096443e-14 0.0 
0.0 -1.36009812599e-10 -2.99233968973e-10 -4.64113464524e-10 -6.60521340586e-10 -8.29493156067e-10 -1.02633437334e-09 -1.13377162103e-09 -1.2250872046e-09 -1.20695895312e-09 -1.09511858755e-09 -9.70438243747e-10 -7.41259956084e-10 -5.79626602312e-10 -3.53325318119e-10 -1.81501564174e-10 -1.14990769502e-11 1.62180530112e-10 3.13668528472e-10 5.03583437859e-10 6.77392713479e-10 8.68963129402e-10 1.04076893284e-09 1.15994233854e-09 1.22985176828e-09 1.1981633228e-09 1.08068402805e-09 9.13593183221e-10 7.14859455828e-10 5.22781541787e-10 3.3889075862e-10 0.0 
