# vtk DataFile Version 3.0
example test vtk file
ASCII
DATASET STRUCTURED_POINTS
DIMENSIONS 32 32 1
SPACING 0.0125 0.0125 1
ORIGIN 0 0 0
POINT_DATA 1024
SCALARS velv float1
LOOKUP_TABLE default
7.32181962446e-07 -1.13241972511e-06 -2.98404514231e-06 -4.78228765655e-06 -6.48619880781e-06 -8.02734202187e-06 -9.32682533305e-06 -1.02899465277e-05 -1.08284633554e-05 -1.08838584028e-05 -1.04397772901e-05 -9.5387533136e-06 -8.24924716086e-06 -6.65940422906e-06 -4.84533061446e-06 -2.87971409625e-06 -8.2187316355e-07 1.26378352215e-06 3.31590878679e-06 5.26273782412e-06 7.0343868039e-06 8.55063119984e-06 9.73778628062e-06 1.05182206818e-05 1.08408055474e-05 1.06781738383e-05 1.00519709331e-05 9.02532337004e-06 7.6812002053e-06 6.11322767588e-06 4.39310409861e-06 2.58721160113e-06 
-8.81356728912e-09 -1.5628900433e-08 -2.23842283542e-08 -2.89396982189e-08 -3.51789230892e-08 -4.08729186956e-08 -4.57770705972e-08 -4.95659782284e-08 -5.1940046757e-08 -5.26590791952e-08 -5.161320297e-08 -4.88624556031e-08 -4.45638115565e-08 -3.89654718201e-08 -3.23019560416e-08 -2.48485247052e-08 -1.68484482708e-08 -8.61495933478e-09 -4.37848940763e-10 7.32511331164e-09 1.43623221317e-08 2.03203117016e-08 2.49190755828e-08 2.78729317921e-08 2.90296960524e-08 2.83267406501e-08 2.5886451608e-08 2.19715888768e-08 1.69052448319e-08 1.10468620211e-08 4.6606269426e-09 -2.00126055478e-09 
-7.50001560945e-07 1.1012328603e-06 2.93961645649e-06 4.724984251e-06 6.41662952906e-06 7.94654367006e-06 9.23633577772e-06 1.01919429021e-05 1.07257403041e-05 1.07796939742e-05 1.0337674178e-05 9.44208721151e-06 8.16106476622e-06 6.58226129008e-06 4.78130562798e-06 2.83036520247e-06 7.88265890342e-07 -1.28117179682e-06 -3.31719548306e-06 -5.24871784994e-06 -7.00649546823e-06 -8.51097690467e-06 -9.68905470312e-06 -1.04636532404e-05 -1.07839665355e-05 -1.06227528227e-05 -1.00014127279e-05 -8.9825414831e-06 -7.64844260789e-06 -6.09203547694e-06 -4.38447600819e-06 -2.5916743655e-06 
-1.47966334944e-06 2.19953462435e-06 5.85494793755e-06 9.40874576985e-06 1.27821515847e-05 1.58399887369e-05 1.84249973726e-05 2.03457795794e-05 2.14221072061e-05 2.15337034963e-05 2.06468952468e-05 1.88508989582e-05 1.62866431488e-05 1.31327219461e-05 9.54079164673e-06 5.65322431135e-06 1.58510674674e-06 -2.5380967442e-06 -6.59635664928e-06 -1.04486996463e-05 -1.39574100655e-05 -1.69638946168e-05 -1.93214991773e-05 -2.0873222221e-05 -2.15150821195e-05 -2.118904501e-05 -1.99386602375e-05 -1.78932597141e-05 -1.5221535748e-05 -1.21125939594e-05 -8.7088011184e-06 -5.14115310222e-06 
-2.18523288317e-06 3.25915603484e-06 8.67267468929e-06 1.39452663842e-05 1.89655970897e-05 2.35338261737e-05 2.74136078934e-05 3.03104480244e-05 3.19419718657e-05 3.21170771215e-05 3.07818737852e-05 2.80816205429e-05 2.42396427472e-05 1.95314996813e-05 1.41848934158e-05 8.40747968627e-06 2.36470642167e-06 -3.76146090807e-06 -9.79505743571e-06 -1.55285297815e-05 -2.07577667955e-05 -2.52473752096e-05 -2.87768914325e-05 -3.11044874672e-05 -3.20682914788e-05 -3.15719894172e-05 -2.9682393954e-05 -2.66037657531e-05 -2.25991060606e-05 -1.79592103828e-05 -1.28971906674e-05 -7.60651755151e-06 
-2.85305763476e-06 4.25872420585e-06 1.13385019226e-05 1.82520797342e-05 2.48645160858e-05 3.09152739579e-05 3.60894209094e-05 3.9980331342e-05 4.218801807e-05 4.24359299228e-05 4.06447010222e-05 3.70323023862e-05 3.19204907507e-05 2.56910729126e-05 1.86475971082e-05 1.10543655941e-05 3.11749083477e-06 -4.93209656139e-06 -1.28677194501e-05 -2.04199245225e-05 -2.73215093792e-05 -3.32643819602e-05 -3.79544176681e-05 -4.1056790539e-05 -4.23449075383e-05 -4.1670218638e-05 -3.91244329352e-05 -3.5001325133e-05 -2.96706374619e-05 -2.35338957831e-05 -1.68732563496e-05 -9.94064866282e-06 
-3.46633777339e-06 5.17216257108e-06 1.37850617841e-05 2.22251683542e-05 3.03460556358e-05 3.78332356543e-05 4.42953186968e-05 4.92022079994e-05 5.20146694355e-05 5.23477051552e-05 5.00883146235e-05 4.55532778367e-05 3.91871284868e-05 3.14898309839e-05 2.28390973954e-05 1.35420874369e-05 3.8312757837e-06 -6.02379333646e-06 -1.57518966465e-05 -2.50284008698e-05 -3.35270710033e-05 -4.08750036817e-05 -4.67051876124e-05 -5.05795685803e-05 -5.21971651542e-05 -5.13348751715e-05 -4.8110787315e-05 -4.29308210278e-05 -3.6289591257e-05 -2.87102895127e-05 -2.05409742673e-05 -1.20850130441e-05 
-4.00644893924e-06 5.97112987438e-06 1.59390028614e-05 2.57506992575e-05 3.52650432627e-05 4.41230716266e-05 5.18629169364e-05 5.78165023194e-05 6.12755875261e-05 6.17108725748e-05 5.89604613042e-05 5.34836567989e-05 4.58840086225e-05 3.67935321976e-05 2.66612072096e-05 1.58149766761e-05 4.49305584951e-06 -7.0079978526e-06 -1.83805691015e-05 -2.92522697104e-05 -3.92427441135e-05 -4.79281966059e-05 -5.4870894411e-05 -5.95151531572e-05 -6.14754023647e-05 -6.04151559094e-05 -5.64800314628e-05 -5.02257484628e-05 -4.22958982366e-05 -3.33500378539e-05 -2.3794926436e-05 -1.39755133326e-05 
-4.44995127501e-06 6.62054251047e-06 1.77073076736e-05 2.86808328098e-05 3.94252587617e-05 4.95518325604e-05 5.85401193903e-05 6.55702074549e-05 6.97283229975e-05 7.0286753972e-05 6.70114609141e-05 6.05699278396e-05 5.17759437492e-05 4.14064321103e-05 2.99739618578e-05 1.77950421282e-05 5.08538397425e-06 -7.84433459542e-06 -2.06575457549e-05 -3.29433197872e-05 -4.42717500017e-05 -5.41918948593e-05 -6.21995873234e-05 -6.76068236217e-05 -6.99324512442e-05 -6.8666923196e-05 -6.39820716532e-05 -5.66402004285e-05 -4.74656428431e-05 -3.72672626372e-05 -2.64985955325e-05 -1.55306486683e-05 
-4.77103636909e-06 7.08228934757e-06 1.89886661917e-05 3.08534117063e-05 4.26113574151e-05 5.38635124173e-05 6.40543606698e-05 7.2198216581e-05 7.7131561761e-05 7.78431825528e-05 7.39822985762e-05 6.65364291677e-05 5.66037386996e-05 4.51110416514e-05 3.26250816532e-05 1.93998810976e-05 5.58944364961e-06 -8.48902959213e-06 -2.24807760467e-05 -3.59431857606e-05 -4.83993844252e-05 -5.94141175851e-05 -6.84215366165e-05 -7.45830426661e-05 -7.73206352862e-05 -7.58465571395e-05 -7.03535128839e-05 -6.19079698187e-05 -5.15523381078e-05 -4.02575544383e-05 -2.85020016099e-05 -1.66612203946e-05 
-4.93965654818e-06 7.31313019532e-06 1.9664366813e-05 3.20713831389e-05 4.45459081704e-05 5.67061495831e-05 6.7999039816e-05 7.72714075044e-05 8.30672620116e-05 8.39680120104e-05 7.94402153929e-05 7.09528150218e-05 5.99857803696e-05 4.76029740069e-05 3.44053513717e-05 2.05170949753e-05 5.97994012763e-06 -8.88399533689e-06 -2.37088728788e-05 -3.80271005658e-05 -5.13134889201e-05 -6.32139441062e-05 -7.31081717186e-05 -7.99963407073e-05 -8.32147442197e-05 -8.15427661552e-05 -7.51789141849e-05 -6.56372330095e-05 -5.42210234978e-05 -4.20594699608e-05 -2.96232633742e-05 -1.72623880705e-05 
-4.92364722809e-06 7.26702764224e-06 1.96071099249e-05 3.21213288947e-05 4.49266221444e-05 5.76921533637e-05 6.99307365455e-05 8.03331932063e-05 8.71200274139e-05 8.82674798048e-05 8.29315374124e-05 7.33436647755e-05 6.15014897647e-05 4.85439812422e-05 3.50919592871e-05 2.10324503254e-05 6.22738511618e-06 -8.96758059904e-06 -2.41967255751e-05 -3.89597144751e-05 -5.26702426231e-05 -6.51769528376e-05 -7.57971367566e-05 -8.33637631202e-05 -8.71917446935e-05 -8.53515372566e-05 -7.80153901877e-05 -6.7399608687e-05 -5.5102930781e-05 -4.23874082893e-05 -2.96655736424e-05 -1.72212381553e-05 
-4.69336148037e-06 6.90359182363e-06 1.86987953666e-05 3.07902304111e-05 4.34180238186e-05 5.63408195349e-05 6.92189836018e-05 8.06428968148e-05 8.85226504754e-05 8.99786333338e-05 8.36899676328e-05 7.30049975421e-05 6.05835509514e-05 4.7513130807e-05 3.44054689263e-05 2.07950549035e-05 6.28961442553e-06 -8.67096404502e-06 -2.37581017544e-05 -3.84267667566e-05 -5.20081556179e-05 -6.47108970555e-05 -7.57761625478e-05 -8.38963002279e-05 -8.84824662133e-05 -8.6542045117e-05 -7.81633437651e-05 -6.65948679082e-05 -5.37462401039e-05 -4.09282865988e-05 -2.8432707669e-05 -1.64327117908e-05 
-4.21919073319e-06 6.18227162385e-06 1.68181299378e-05 2.7856085104e-05 3.96637817585e-05 5.21281108384e-05 6.51728431985e-05 7.73933632862e-05 8.65011683761e-05 8.8371856068e-05 8.08958852315e-05 6.91451990772e-05 5.66145462864e-05 4.40471428329e-05 3.20643896889e-05 1.96609351036e-05 6.10688714025e-06 -7.92429569956e-06 -2.22164930824e-05 -3.61104076984e-05 -4.88082070601e-05 -6.11756800903e-05 -7.22735901298e-05 -8.07187014091e-05 -8.63181752085e-05 -8.44002877349e-05 -7.48612014684e-05 -6.25598316318e-05 -4.96607091095e-05 -3.73484099015e-05 -2.57212311726e-05 -1.47885165639e-05 
-3.49371935591e-06 5.09671016491e-06 1.39318849895e-05 2.32217554799e-05 3.34281933772e-05 4.45799244717e-05 5.69444282668e-05 6.93073485612e-05 7.94376948893e-05 8.17551569821e-05 7.31401662736e-05 6.07639415124e-05 4.89473309947e-05 3.77348804932e-05 2.77654606185e-05 1.74092485084e-05 5.57724309635e-06 -6.68437979799e-06 -1.93567812246e-05 -3.16091504946e-05 -4.2493909297e-05 -5.37597556116e-05 -6.41865877955e-05 -7.24571262552e-05 -7.91163482314e-05 -7.74087617766e-05 -6.69215870861e-05 -5.45039469384e-05 -4.24104019344e-05 -3.14367216728e-05 -2.14426549829e-05 -1.2258711459e-05 
-2.51439794879e-06 3.64657059735e-06 1.00188354097e-05 1.68096565583e-05 2.44893152692e-05 3.32131082341e-05 4.36241866973e-05 5.49752584381e-05 6.56241762488e-05 6.83971495285e-05 5.88850259411e-05 4.67433373772e-05 3.69127285727e-05 2.81474944449e-05 2.12441206593e-05 1.38273480648e-05 4.54124333898e-06 -4.91122240643e-06 -1.50041974473e-05 -2.45249965664e-05 -3.23961662183e-05 -4.1612502469e-05 -5.03342813616e-05 -5.75742438348e-05 -6.52259937381e-05 -6.4011679042e-05 -5.30367550505e-05 -4.15640207373e-05 -3.15587254089e-05 -2.29955386805e-05 -1.55278799216e-05 -8.82448466554e-06 
-1.33587611868e-06 1.91322470756e-06 5.2940100819e-06 8.94430919748e-06 1.32058060203e-05 1.82417620408e-05 2.47651649327e-05 3.25186977323e-05 4.08053863696e-05 4.32135667525e-05 3.54817990131e-05 2.65951125228e-05 2.05708173755e-05 1.54771267875e-05 1.21686251279e-05 8.29478707759e-06 2.72721788602e-06 -2.66858222376e-06 -8.76963967252e-06 -1.42608902078e-05 -1.82631711186e-05 -2.39783699204e-05 -2.94225721365e-05 -3.40920507961e-05 -4.051690785e-05 -3.99467018826e-05 -3.13746323607e-05 -2.34591063522e-05 -1.73273856871e-05 -1.23851641614e-05 -8.27736016616e-06 -4.67643912348e-06 
-2.20218091101e-08 -9.97711595628e-09 2.46125163756e-09 1.58384127562e-08 3.16625493028e-08 5.07102912218e-08 7.66364359528e-08 1.09266846667e-07 1.47918636305e-07 1.65315899814e-07 1.40479713553e-07 1.08601454714e-07 8.64400617296e-08 6.57790443506e-08 5.35218867775e-08 3.57181902504e-08 5.49543645406e-09 -2.28856037315e-08 -5.65756548039e-08 -8.48702678927e-08 -1.02378133335e-07 -1.29281208004e-07 -1.5315409268e-07 -1.72128870988e-07 -2.01258228662e-07 -1.94442059642e-07 -1.49357326606e-07 -1.12097744338e-07 -8.52889414437e-08 -6.4843068873e-08 -4.85066821735e-08 -3.46276709316e-08 
1.29309916997e-06 -1.93406352013e-06 -5.29246668538e-06 -8.91915391619e-06 -1.31543206767e-05 -1.81605503524e-05 -2.46489918482e-05 -3.23643960575e-05 -4.06149560472e-05 -4.30088880785e-05 -3.52970370003e-05 -2.64420687036e-05 -2.04478907331e-05 -1.53837166828e-05 -1.21016340477e-05 -8.25801536028e-06 -2.72981010847e-06 2.62395980467e-06 8.68092896425e-06 1.41308542185e-05 1.80995267036e-05 2.37796510835e-05 2.91921747017e-05 3.38370692457e-05 4.02400290552e-05 3.96784788148e-05 3.11465372467e-05 2.32732194417e-05 1.71785464315e-05 1.22678915237e-05 8.18748256306e-06 4.61094804092e-06 
2.47310517666e-06 -3.66827101508e-06 -1.00207125731e-05 -1.67912795375e-05 -2.44498870548e-05 -3.31524755098e-05 -4.35445271697e-05 -5.48825600993e-05 -6.55304489065e-05 -6.83050028311e-05 -5.87874086604e-05 -4.66489337481e-05 -3.68340969962e-05 -2.80882334481e-05 -2.12113407551e-05 -1.3820275318e-05 -4.55686952289e-06 4.86838775513e-06 1.49369023635e-05 2.44310536736e-05 3.22726872602e-05 4.14696578384e-05 5.01747769388e-05 5.74041217471e-05 6.50636225217e-05 6.38538374647e-05 5.28773148618e-05 4.14167552136e-05 3.14323901271e-05 2.2891320594e-05 1.54456691167e-05 8.76307535363e-06 
3.45517129369e-06 -5.12001056635e-06 -1.39399612806e-05 -2.321472156e-05 -3.34064321034e-05 -4.45446577949e-05 -5.68989476915e-05 -6.9256998591e-05 -7.93895185843e-05 -8.17084630736e-05 -7.30885413891e-05 -6.07118579468e-05 -4.89034234533e-05 -3.77037513897e-05 -2.77522288753e-05 -1.74147232751e-05 -5.5992651657e-06 6.64490960352e-06 1.9300716413e-05 3.15360998132e-05 4.24024299253e-05 5.36554228331e-05 6.40731079939e-05 7.23392159568e-05 7.90043046917e-05 7.72988307353e-05 6.68080234919e-05 5.43943290726e-05 4.23116966709e-05 3.13519955958e-05 2.13732276894e-05 1.22047411495e-05 
4.18345859615e-06 -6.20708607024e-06 -1.68322355092e-05 -2.78601062486e-05 -3.96591380805e-05 -5.21171372457e-05 -6.5159995983e-05 -7.73836552716e-05 -8.64992838323e-05 -8.83738455662e-05 -8.08914591127e-05 -6.91354639397e-05 -5.66062720704e-05 -4.40444618668e-05 -3.20725433359e-05 -1.96802729011e-05 -6.13440756835e-06 7.88819005346e-06 2.21731931909e-05 3.60593595133e-05 4.87474605144e-05 6.1110199196e-05 7.22062379282e-05 8.06519550495e-05 8.62588266454e-05 8.43403600067e-05 7.47917268275e-05 6.24860557913e-05 4.95887441158e-05 3.72827317442e-05 2.56644733488e-05 1.47419640597e-05 
4.66054346598e-06 -6.92983854006e-06 -1.87187278622e-05 -3.0804585329e-05 -4.34283042823e-05 -5.6349265328e-05 -6.9229052657e-05 -8.06579033133e-05 -8.85444664448e-05 -9.00034137157e-05 -8.37104206472e-05 -7.30205037823e-05 -6.05976208657e-05 -4.75289107251e-05 -3.44261629827e-05 -2.08211805317e-05 -6.31937754326e-06 8.6381821697e-06 2.37229696585e-05 3.83892989057e-05 5.19674505516e-05 6.46693961396e-05 7.57358379446e-05 8.38583403467e-05 8.84491515531e-05 8.65073520183e-05 7.8120854698e-05 6.65464799061e-05 5.36958276966e-05 4.08794752594e-05 2.83879704902e-05 1.63935497083e-05 
4.89370794191e-06 -7.29461838507e-06 -1.96326581809e-05 -3.21456280176e-05 -4.49512778566e-05 -5.77192344684e-05 -6.99630787471e-05 -8.03728310367e-05 -8.71671514759e-05 -8.83178662078e-05 -8.29783041491e-05 -7.33848027072e-05 -6.15384293863e-05 -4.85784710451e-05 -3.51261051736e-05 -2.10663587655e-05 -6.25943095557e-06 8.93800913672e-06 2.41703770788e-05 3.89365016232e-05 5.26493414884e-05 6.51596739286e-05 7.578425776e-05 8.33548505151e-05 8.71867062239e-05 8.53442054194e-05 7.79997227021e-05 6.73758226921e-05 5.50732542553e-05 4.23548923192e-05 2.96325057949e-05 1.71892925928e-05 
4.91215359949e-06 -7.34168213889e-06 -1.96942098343e-05 -3.21031850555e-05 -4.45809244844e-05 -5.67459125972e-05 -6.80453175799e-05 -7.73250800636e-05 -8.3127446655e-05 -8.40308778154e-05 -7.95004115901e-05 -7.10078412881e-05 -6.00355337534e-05 -4.76481588096e-05 -3.44468519325e-05 -2.05547659448e-05 -6.01263995364e-06 8.85703431671e-06 2.3688094009e-05 3.80124675943e-05 5.13043701364e-05 6.3210554245e-05 7.31103891185e-05 8.00029653155e-05 8.32241169088e-05 8.15498378647e-05 7.51788885509e-05 6.56291040333e-05 5.42057469029e-05 4.20389815736e-05 2.95992707718e-05 1.72362531601e-05 
4.74589801558e-06 -7.11175816829e-06 -1.90226814023e-05 -3.08924846277e-05 -4.26564826228e-05 -5.39157173935e-05 -6.41146476177e-05 -7.22665557998e-05 -7.72063168951e-05 -7.79205473963e-05 -7.40573599847e-05 -6.66061753972e-05 -5.66669555992e-05 -4.51673916587e-05 -3.26745742916e-05 -1.94420001147e-05 -5.62308760431e-06 8.46452468939e-06 2.24658094e-05 3.59375375084e-05 4.84023116026e-05 5.94250918554e-05 6.84396034631e-05 7.46061252319e-05 7.73461362345e-05 7.58696217975e-05 7.03696727568e-05 6.19154800173e-05 5.15511261284e-05 4.02487697635e-05 2.84868053084e-05 1.6640736694e-05 
4.42660001898e-06 -6.65053362984e-06 -1.77440638733e-05 -2.87246860621e-05 -3.94768082291e-05 -4.96115996602e-05 -5.86083705897e-05 -6.56462718763e-05 -6.98101766655e-05 -7.03708476353e-05 -6.70935383973e-05 -6.06468767557e-05 -5.18459169941e-05 -4.14684376296e-05 -3.00273615277e-05 -1.78390650415e-05 -5.11906544238e-06 7.82164590767e-06 2.06460736517e-05 3.29427686831e-05 4.42812783885e-05 5.42104870692e-05 6.22257511824e-05 6.76381367098e-05 6.99658737876e-05 6.86981317314e-05 6.40071077797e-05 5.66568990518e-05 4.74732833062e-05 3.72662039248e-05 2.64894709296e-05 1.55141826033e-05 
3.98481706937e-06 -6.00165279852e-06 -1.59784983377e-05 -2.57993070068e-05 -3.53230627397e-05 -4.41905675329e-05 -5.19396029611e-05 -5.79011697606e-05 -6.13658789995e-05 -6.18032666293e-05 -5.90508996644e-05 -5.35688301532e-05 -4.59615431622e-05 -3.68618376742e-05 -2.67191133235e-05 -1.58614499476e-05 -4.52708375193e-06 6.98699073857e-06 1.83727430411e-05 2.92571545723e-05 3.92593380108e-05 4.7955054515e-05 5.49060617564e-05 5.95557872627e-05 6.15181382039e-05 6.04557876678e-05 5.65147244864e-05 5.02520150469e-05 4.23124486688e-05 3.33566555082e-05 2.37917577627e-05 1.39629822866e-05 
3.44588380966e-06 -5.20290753586e-06 -1.38261019494e-05 -2.22764969959e-05 -3.0407669897e-05 -3.79048495299e-05 -4.43762085958e-05 -4.92908366334e-05 -5.21085351919e-05 -5.24434271999e-05 -5.01821183212e-05 -4.56418584925e-05 -3.92678720761e-05 -3.15608109782e-05 -2.28988285923e-05 -1.3589366948e-05 -3.86511947384e-06 6.0039383374e-06 1.57460798048e-05 2.50360769458e-05 3.35471109985e-05 4.09057461777e-05 4.67444143133e-05 5.06243174832e-05 5.2243984658e-05 5.13798177043e-05 4.81502326141e-05 4.29621342943e-05 3.63111632595e-05 2.87214343353e-05 2.05414768444e-05 1.20749812569e-05 
2.83373064679e-06 -4.28974478103e-06 -1.13811863345e-05 -1.83062686181e-05 -2.49299836246e-05 -3.09914188089e-05 -3.61751838117e-05 -4.00738750077e-05 -4.22866806317e-05 -4.2536328356e-05 -4.07431286458e-05 -3.71253688098e-05 -3.2005337305e-05 -2.57654670804e-05 -1.870976312e-05 -1.11029430806e-05 -3.15143639826e-06 4.91329253343e-06 1.28640598019e-05 2.04307373047e-05 2.73455430937e-05 3.32997402299e-05 3.79986522956e-05 4.11067468527e-05 4.23970245059e-05 4.17205970275e-05 3.91694815531e-05 3.50382547871e-05 2.96975315362e-05 2.35497186086e-05 1.68774598993e-05 9.93311066367e-06 
2.1665675447e-06 -3.29023117579e-06 -8.71607735773e-06 -1.40007494152e-05 -1.90327500525e-05 -2.36118523685e-05 -2.75012202112e-05 -3.04056598947e-05 -3.20420715353e-05 -3.22187593445e-05 -3.08815633088e-05 -2.8175955711e-05 -2.43256905349e-05 -1.96068816798e-05 -1.42477018995e-05 -8.4562646849e-06 -2.39843288539e-06 3.7432924147e-06 9.79238343166e-06 1.55406363646e-05 2.07833185839e-05 2.52843926373e-05 2.88228176038e-05 3.11561491926e-05 3.21221385946e-05 3.16242568679e-05 2.97295916018e-05 2.6643057767e-05 2.26284333882e-05 1.79772945512e-05 1.29032831498e-05 7.60030058916e-06 
1.46162400164e-06 -2.23074664502e-06 -5.89923500214e-06 -9.46576764716e-06 -1.28513752985e-05 -1.59204415523e-05 -1.85152215353e-05 -2.04436346092e-05 -2.15248005815e-05 -2.16379097461e-05 -2.07490471588e-05 -1.89475887487e-05 -1.6374823707e-05 -1.32098739909e-05 -9.604863315e-06 -5.70268667498e-06 -1.61887999383e-06 2.52048914768e-06 6.59482984913e-06 1.04624633749e-05 1.39850615952e-05 1.70033335339e-05 1.93700648649e-05 2.09276502636e-05 2.15717790152e-05 2.12442507016e-05 1.99888757824e-05 1.79355708279e-05 1.52537275878e-05 1.21332106111e-05 8.71690894388e-06 5.13630619409e-06 
