# vtk DataFile Version 3.0
example test vtk file
ASCII
DATASET STRUCTURED_POINTS
DIMENSIONS 32 32 1
SPACING 0.0125 0.0125 1
ORIGIN 0 0 0
POINT_DATA 1024
SCALARS velv float1
LOOKUP_TABLE default
8.72902793839e-13 -6.37513608782e-12 -1.45844996304e-11 -2.10847898089e-11 -2.80410169233e-11 -3.28689025205e-11 -3.74123942449e-11 -3.98464824335e-11 -4.10039119712e-11 -4.06958828418e-11 -3.81153724783e-11 -3.51274242824e-11 -2.93215765904e-11 -2.4061203934e-11 -1.62236863804e-11 -9.39634494927e-12 -8.76867482214e-13 6.56768250544e-12 1.45962067681e-11 2.15255260507e-11 2.80605081824e-11 3.33096387623e-11 3.74241013825e-11 4.00390288511e-11 4.09999472828e-11 4.0516650081e-11 3.81036653406e-11 3.46733743837e-11 2.9310014708e-11 2.36071540353e-11 1.62119792428e-11 9.21711218851e-12 
-6.27217352219e-12 4.25305173774e-11 9.50073911437e-11 1.39539166013e-10 1.85072206603e-10 2.19245458477e-10 2.50289012321e-10 2.67946287764e-10 2.7676026058e-10 2.74110361754e-10 2.56985127162e-10 2.34756308605e-10 1.96131203629e-10 1.58703276612e-10 1.07702466635e-10 6.07181301491e-11 6.19596684959e-12 -4.4068727101e-11 -9.57550287154e-11 -1.42706092998e-10 -1.8606547814e-10 -2.22412385463e-10 -2.51036649892e-10 -2.69484497488e-10 -2.76836467253e-10 -2.72936053455e-10 -2.5623748959e-10 -2.31225480196e-10 -1.94985518746e-10 -1.55172448203e-10 -1.06954829063e-10 -5.95438218491e-11 
-9.80732071161e-12 6.50529668694e-11 1.44260181449e-10 2.12897811719e-10 2.81934771859e-10 3.35074822011e-10 3.82556289024e-10 4.10218092281e-10 4.24020119091e-10 4.1970679314e-10 3.93712455748e-10 3.58628476245e-10 2.99991226573e-10 2.4162305998e-10 1.64484679481e-10 9.19484536308e-11 9.63553740179e-12 -6.74278959743e-11 -1.45712335911e-10 -2.17661225746e-10 -2.83847250006e-10 -3.39838236038e-10 -3.84008443485e-10 -4.12593021386e-10 -4.24191902401e-10 -4.17992402157e-10 -3.92260301287e-10 -3.53204524096e-10 -2.97735181807e-10 -2.36199107831e-10 -1.6303252502e-10 -9.02340626474e-11 
-1.75068734754e-11 1.18615118329e-10 2.64195648145e-10 3.89382296358e-10 5.17801160779e-10 6.1539566397e-10 7.05449241782e-10 7.56482898185e-10 7.83560360688e-10 7.7564420807e-10 7.259598194e-10 6.61869115751e-10 5.50523180674e-10 4.4448847865e-10 3.00403049303e-10 1.68382245402e-10 1.7146973094e-11 -1.23701201709e-10 -2.66745965405e-10 -3.99259229697e-10 -5.21119855741e-10 -6.25272597309e-10 -7.07999559041e-10 -7.61568981565e-10 -7.8392026107e-10 -7.72224105976e-10 -7.2340950214e-10 -6.50326201126e-10 -5.46484684948e-10 -4.32945564025e-10 -2.97852732043e-10 -1.64962143308e-10 
-2.13300491347e-11 1.4392153541e-10 3.19492116802e-10 4.72532440598e-10 6.28926030691e-10 7.49978118246e-10 8.61560924125e-10 9.25759223694e-10 9.60591102623e-10 9.50456879014e-10 8.88787013312e-10 8.08205100479e-10 6.71028324169e-10 5.39943963603e-10 3.64528688044e-10 2.03005574413e-10 2.06586764312e-11 -1.5055805887e-10 -3.23225318571e-10 -4.8488741233e-10 -6.33690518243e-10 -7.62333089978e-10 -8.65294125894e-10 -9.32395747155e-10 -9.61262475326e-10 -9.46457493016e-10 -8.85053811543e-10 -7.93212991285e-10 -6.6492109121e-10 -5.24951854408e-10 -3.60795486275e-10 -1.99006188415e-10 
-3.00987102094e-11 2.07505920572e-10 4.61467635123e-10 6.83940529787e-10 9.16391858513e-10 1.09627823966e-09 1.26982576252e-09 1.36647025486e-09 1.42546196195e-09 1.40951838414e-09 1.31232567511e-09 1.19230933256e-09 9.79441379719e-10 7.88913729998e-10 5.26223381325e-10 2.92056104922e-10 2.87680904942e-11 -2.1983771944e-10 -4.67235650255e-10 -7.05315827027e-10 -9.23571384117e-10 -1.1176535369e-09 -1.27559377765e-09 -1.37880205373e-09 -1.42679258167e-09 -1.40343435345e-09 -1.30655765998e-09 -1.16468626715e-09 -9.69600614685e-10 -7.6129066458e-10 -5.20455366194e-10 -2.85972074233e-10 
-3.42105446186e-11 2.37098491744e-10 5.26082132554e-10 7.83239870328e-10 1.05247712256e-09 1.26604607352e-09 1.47333689687e-09 1.59113140214e-09 1.66635315089e-09 1.64655352628e-09 1.52864429022e-09 1.38307453697e-09 1.13040786547e-09 9.06718622513e-10 6.01906594299e-10 3.30786953418e-10 3.17866903634e-11 -2.52869508225e-10 -5.3411020972e-10 -8.08899294372e-10 -1.062153326e-09 -1.29170549756e-09 -1.48136497404e-09 -1.60690241863e-09 -1.66877700515e-09 -1.64052234338e-09 -1.52061621305e-09 -1.34767527935e-09 -1.11588395352e-09 -8.71319364891e-10 -5.93878517133e-10 -3.24755770515e-10 
-4.39024391527e-11 3.13422285253e-10 6.95314636663e-10 1.04237821625e-09 1.4158794927e-09 1.71801871833e-09 2.02984191717e-09 2.2003124098e-09 2.33170881668e-09 2.29933953079e-09 2.11536274628e-09 1.90709892012e-09 1.5276908017e-09 1.22621305636e-09 7.96200649716e-10 4.3106657935e-10 3.91845273691e-11 -3.42260297756e-10 -7.07287281482e-10 -1.08428332542e-09 -1.42973696712e-09 -1.75992382749e-09 -2.04181456199e-09 -2.2291504223e-09 -2.33642672846e-09 -2.29340516836e-09 -2.10339010146e-09 -1.84229016088e-09 -1.50439750371e-09 -1.16140429713e-09 -7.84228004897e-10 -4.25132216914e-10 
-4.77202588969e-11 3.45951709121e-10 7.66423948658e-10 1.15677896263e-09 1.58010208676e-09 1.936515409e-09 2.30738073976e-09 2.51755370725e-09 2.69088802658e-09 2.64994443e-09 2.42096908345e-09 2.1661271321e-09 1.71754835817e-09 1.37150542591e-09 8.80730247836e-10 4.67203937141e-10 3.93573344264e-11 -3.82495062296e-10 -7.8261434794e-10 -1.20560583799e-09 -1.5979744892e-09 -1.98534228435e-09 -2.32357113905e-09 -2.55409706042e-09 -2.69925095105e-09 -2.64851874041e-09 -2.40477868417e-09 -2.08218259316e-09 -1.68295010679e-09 -1.28756088697e-09 -8.64539848554e-10 -4.65778247554e-10 
-5.66065623601e-11 4.28864465286e-10 9.47505395363e-10 1.45298829061e-09 2.01840399146e-09 2.52453481743e-09 3.08758003502e-09 3.39494643478e-09 3.72381785234e-09 3.64911770363e-09 3.26866747346e-09 2.89858374395e-09 2.21356162276e-09 1.77355750307e-09 1.09134234484e-09 5.51021693718e-10 4.08336543938e-11 -4.95247426651e-10 -9.708565909e-10 -1.52843853358e-09 -2.0426864879e-09 -2.5999850604e-09 -3.11093123055e-09 -3.46132939615e-09 -3.7395907603e-09 -3.66463770922e-09 -3.24531627793e-09 -2.74123053403e-09 -2.15773331038e-09 -1.61620429315e-09 -1.0679911493e-09 -5.66541699306e-10 
-5.85712532156e-11 4.55568943629e-10 1.00660205107e-09 1.55888023875e-09 2.18553695275e-09 2.78348800353e-09 3.44822560541e-09 3.83425630187e-09 4.2810200096e-09 4.18491499395e-09 3.6919671236e-09 3.22966659981e-09 2.42294267925e-09 1.93442098481e-09 1.16337900048e-09 5.57428593833e-10 3.22047415426e-11 -5.37004227037e-10 -1.03668253508e-09 -1.64305692647e-09 -2.21492816637e-09 -2.86766469124e-09 -3.47830608943e-09 -3.91569158528e-09 -4.30738652128e-09 -4.22417559633e-09 -3.66188663959e-09 -3.0247940263e-09 -2.34081844228e-09 -1.7295484113e-09 -1.13329851647e-09 -5.96689196217e-10 
-6.20675295583e-11 5.1533795061e-10 1.13168056466e-09 1.81077336443e-09 2.60233394622e-09 3.47446488614e-09 4.48337428263e-09 5.05520987433e-09 5.96801285557e-09 5.77437696344e-09 4.87982249135e-09 4.18789251382e-09 2.93020737172e-09 2.38616673158e-09 1.31336624842e-09 5.20394374764e-10 1.57316181174e-11 -6.57517093652e-10 -1.17220807038e-09 -1.92864850947e-09 -2.6388323536e-09 -3.59234003118e-09 -4.52390178836e-09 -5.19738901738e-09 -6.01434876701e-09 -5.90757829683e-09 -4.83929498563e-09 -3.79463689236e-09 -2.80103714145e-09 -1.99291111011e-09 -1.2728387427e-09 -6.53595708152e-10 
-5.99167852307e-11 5.13707696039e-10 1.13076034389e-09 1.82869213377e-09 2.66047862287e-09 3.65327146231e-09 4.77593069376e-09 5.46584360121e-09 6.63822937418e-09 6.40348836156e-09 5.27687024253e-09 4.43979257116e-09 3.03406332428e-09 2.48721401924e-09 1.31508295582e-09 4.43913393496e-10 -7.04727403198e-12 -6.7185032763e-10 -1.17751255789e-09 -1.95063513765e-09 -2.69989426258e-09 -3.77521446619e-09 -4.82268290777e-09 -5.6239862328e-09 -6.70519343344e-09 -6.60641835423e-09 -5.23011802852e-09 -3.95677694302e-09 -2.86071956604e-09 -2.0041983911e-09 -1.26833074181e-09 -6.46843386165e-10 
-5.05782321211e-11 4.74648748204e-10 1.03513021449e-09 1.7794788536e-09 2.673111364e-09 4.1089056883e-09 5.65389667594e-09 6.60382597502e-09 8.98452664036e-09 8.51165601169e-09 6.41720351727e-09 5.20489328867e-09 3.12489244143e-09 2.79536684171e-09 1.21190943871e-09 4.51828619945e-11 -4.71919077924e-11 -7.10727981367e-10 -1.08821404892e-09 -1.91495962468e-09 -2.71359619367e-09 -4.24438645938e-09 -5.70698051037e-09 -6.83990520819e-09 -9.08229678027e-09 -9.03651659647e-09 -6.36411968284e-09 -4.30847269965e-09 -2.88886733194e-09 -1.89894625269e-09 -1.15882560427e-09 -5.70043446773e-10 
-4.36228817049e-11 4.16498426986e-10 9.1013598898e-10 1.55366633435e-09 2.34156122778e-09 3.47267521262e-09 4.76688079561e-09 5.5568407912e-09 7.23879516189e-09 6.90192266218e-09 5.38138728127e-09 4.40688573206e-09 2.73276819491e-09 2.3348687284e-09 1.06357712856e-09 1.58610198549e-10 -4.13735942442e-11 -6.15916202903e-10 -9.56287194429e-10 -1.67645044564e-09 -2.37610210636e-09 -3.5954593239e-09 -4.81303200106e-09 -5.75625856712e-09 -7.32379163784e-09 -7.24321612888e-09 -5.33523607582e-09 -3.74339037815e-09 -2.52823436443e-09 -1.6713733745e-09 -1.01742592311e-09 -4.99903665252e-10 
-1.66618571314e-11 1.72740959703e-10 3.7907151844e-10 6.74527970358e-10 1.04981917033e-09 1.70744310761e-09 2.40104481163e-09 2.90099879761e-09 4.02769808339e-09 3.81751472168e-09 2.81170150705e-09 2.18810838606e-09 1.27631782757e-09 1.12590599795e-09 4.48614311404e-10 -6.00150460397e-11 -4.78778581222e-11 -2.75982325226e-10 -4.06966431276e-10 -7.26147526312e-10 -1.06883536006e-09 -1.75906266356e-09 -2.42893972447e-09 -3.00424016314e-09 -4.09223779864e-09 -4.07948610684e-09 -2.78380659422e-09 -1.77127607942e-09 -1.12822220734e-09 -7.0907369131e-10 -4.20719398568e-10 -2.01956339123e-10 
-7.38977339984e-12 9.74925166454e-11 2.04797093044e-10 4.49958889712e-10 7.37313098892e-10 1.64065966852e-09 2.48466556879e-09 2.98946927669e-09 5.17851975015e-09 4.74952896608e-09 2.95816221648e-09 2.22948878551e-09 9.05840605571e-10 1.17456922968e-09 2.40100223374e-10 -4.68846973008e-10 -4.2199566367e-11 -2.36310863038e-10 -2.17562852154e-10 -4.96115448622e-10 -7.43519106364e-10 -1.68681622743e-09 -2.4974313279e-09 -3.12828762308e-09 -5.22810908991e-09 -5.31597414684e-09 -2.94539645737e-09 -1.47806869944e-09 -8.00455918565e-10 -4.23149143612e-10 -2.27334464265e-10 -9.75982077532e-11 
2.55063275524e-11 -2.56995471816e-10 -5.57466541012e-10 -1.00181261203e-09 -1.53943716334e-09 -2.55666744057e-09 -3.6257731822e-09 -4.27315503395e-09 -6.20865745602e-09 -5.82572581413e-09 -4.16977474887e-09 -3.31818725878e-09 -1.81930440024e-09 -1.75471897904e-09 -6.51838675968e-10 1.5511838723e-10 4.17865803056e-11 4.2611353297e-10 5.86925023291e-10 1.08628294713e-09 1.55981060636e-09 2.64113777567e-09 3.65523166448e-09 4.4422730951e-09 6.27595036388e-09 6.27959513786e-09 4.14031626659e-09 2.6107295388e-09 1.6643451415e-09 1.04726125905e-09 6.22380193689e-10 2.98750936502e-10 
3.65875828156e-11 -3.79060114542e-10 -8.22700448224e-10 -1.51331998086e-09 -2.35396936956e-09 -4.12422189999e-09 -5.89977212729e-09 -7.05580354484e-09 -1.05941524257e-08 -9.91000878654e-09 -6.89357810773e-09 -5.36095018652e-09 -2.83495245373e-09 -2.82079915896e-09 -9.68749916147e-10 4.28711394436e-10 9.27800882326e-11 6.54600412462e-10 8.75173796247e-10 1.63660131371e-09 2.38924726007e-09 4.24750323285e-09 5.95224547532e-09 7.33134384276e-09 1.07235200968e-08 1.0773920983e-08 6.84110475971e-09 4.0982163593e-09 2.54093922112e-09 1.55806533174e-09 9.16276568124e-10 4.35200802011e-10 
5.38327858913e-11 -4.97060222267e-10 -1.09056800728e-09 -1.83402665884e-09 -2.74251096033e-09 -4.02863532934e-09 -5.46489727707e-09 -6.37917385974e-09 -8.25839401365e-09 -7.88998032332e-09 -6.17312232332e-09 -5.04571683717e-09 -3.19517766308e-09 -2.71383240713e-09 -1.27361950721e-09 -2.21178960696e-10 4.67980313275e-11 7.1072081578e-10 1.14506083539e-09 1.96944738541e-09 2.78396946768e-09 4.1640560559e-09 5.51939010518e-09 6.59283445325e-09 8.35902483087e-09 8.27532993032e-09 6.11862949522e-09 4.31128591009e-09 2.95245752129e-09 1.97940148004e-09 1.2191266791e-09 6.06528567702e-10 
6.02762058228e-11 -5.34463929352e-10 -1.16952410441e-09 -1.93087280793e-09 -2.83830982106e-09 -3.97170911489e-09 -5.29018104526e-09 -6.06019426904e-09 -7.48153917502e-09 -7.18708608102e-09 -5.85845174948e-09 -4.92132658533e-09 -3.25307706982e-09 -2.69135982196e-09 -1.36348588054e-09 -4.08368530195e-10 1.28114332651e-11 7.31621566038e-10 1.22050532474e-09 2.07038934644e-09 2.88042634298e-09 4.1112256534e-09 5.3411622656e-09 6.25735190572e-09 7.55462681411e-09 7.43780104144e-09 5.80747052915e-09 4.33393744972e-09 3.06478526973e-09 2.10397068635e-09 1.3125046602e-09 6.59083490612e-10 
6.1390357025e-11 -5.02525046091e-10 -1.10769913566e-09 -1.75116864547e-09 -2.4999795565e-09 -3.27931991378e-09 -4.17099823925e-09 -4.69587701963e-09 -5.40630553188e-09 -5.25731025567e-09 -4.52560727173e-09 -3.89848448824e-09 -2.80938068142e-09 -2.25010485327e-09 -1.28502251851e-09 -5.5602528778e-10 -1.81825867118e-11 6.2204426945e-10 1.14747203492e-09 1.85831032666e-09 2.53617060662e-09 3.38646159497e-09 4.21077113851e-09 4.81539624299e-09 5.4495133022e-09 5.34595255954e-09 4.48583437246e-09 3.58318127981e-09 2.68677409067e-09 1.93480164484e-09 1.24524961925e-09 6.44667591652e-10 
6.16422597317e-11 -4.86016269808e-10 -1.07121975243e-09 -1.66797530913e-09 -2.3496023333e-09 -2.99879369254e-09 -3.74346009443e-09 -4.15339631608e-09 -4.65179495537e-09 -4.54159040561e-09 -4.00175042741e-09 -3.51093003735e-09 -2.60366864927e-09 -2.08510750636e-09 -1.23811623959e-09 -5.91019303498e-10 -3.55430845315e-11 5.81850045166e-10 1.10277845338e-09 1.76529980313e-09 2.38058364619e-09 3.09611818654e-09 3.77501879538e-09 4.24923009144e-09 4.67789413057e-09 4.58188511233e-09 3.97019172646e-09 3.27747706127e-09 2.52048898598e-09 1.85165453029e-09 1.20655753863e-09 6.31314010217e-10 
5.42540528373e-11 -4.05858177405e-10 -8.97821636105e-10 -1.36917890659e-09 -1.8911973888e-09 -2.34921518869e-09 -2.84435688538e-09 -3.12431958633e-09 -3.38729980847e-09 -3.3274684321e-09 -3.00618950643e-09 -2.66966106844e-09 -2.07208003088e-09 -1.65089627278e-09 -1.03461981252e-09 -5.33016723404e-10 -4.01468304687e-11 4.60530932717e-10 9.20214622834e-10 1.43513531691e-09 1.91477868681e-09 2.41517159901e-09 2.86674987211e-09 3.17899234165e-09 3.40140703084e-09 3.33408238832e-09 2.9837965197e-09 2.5424179466e-09 2.02028428813e-09 1.52365315093e-09 1.01222682579e-09 5.39630679623e-10 
5.10035490408e-11 -3.7252070715e-10 -8.25251681204e-10 -1.24638971615e-09 -1.70709022218e-09 -2.09049722017e-09 -2.49925901919e-09 -2.72178742118e-09 -2.91198067393e-09 -2.86675426727e-09 -2.61808384439e-09 -2.34843515351e-09 -1.85283853533e-09 -1.48380570151e-09 -9.47329332244e-10 -5.03951724775e-10 -4.30491238338e-11 4.14470488157e-10 8.41911142397e-10 1.30269503418e-09 1.72566524717e-09 2.1468025382e-09 2.51591848039e-09 2.76373720219e-09 2.91993509914e-09 2.86317956119e-09 2.6014243832e-09 2.25375476056e-09 1.81835465992e-09 1.38912530856e-09 9.3066987105e-10 5.0037701869e-10 
4.12490597316e-11 -2.91121077239e-10 -6.45522719153e-10 -9.65815194452e-10 -1.30634731838e-09 -1.58117010233e-09 -1.85657929652e-09 -2.01169712084e-09 -2.12055062642e-09 -2.09319434533e-09 -1.9335570244e-09 -1.74350198305e-09 -1.40928614228e-09 -1.12821292335e-09 -7.3993797999e-10 -4.02531624861e-10 -3.7109562606e-11 3.14769445251e-10 6.56874071841e-10 1.0016936811e-09 1.31962594882e-09 1.61704858898e-09 1.86793064921e-09 2.03534548886e-09 2.12469012355e-09 2.08662591436e-09 1.92220567171e-09 1.69054355937e-09 1.38772851758e-09 1.07525449966e-09 7.28586627302e-10 3.95963193888e-10 
3.69692772935e-11 -2.57926184712e-10 -5.73142906923e-10 -8.52441285129e-10 -1.14746540878e-09 -1.37847124248e-09 -1.60674648866e-09 -1.73293668598e-09 -1.81554819845e-09 -1.79404199875e-09 -1.66494002873e-09 -1.50924973269e-09 -1.2304313623e-09 -9.89514221027e-10 -6.54663367102e-10 -3.60991105145e-10 -3.47054468206e-11 2.7589388191e-10 5.81331466471e-10 8.81990915204e-10 1.157426347e-09 1.40802087255e-09 1.61493504821e-09 1.75090438318e-09 1.81781202892e-09 1.78658434998e-09 1.65675146918e-09 1.46919005419e-09 1.21594276313e-09 9.49454542528e-10 6.46474807553e-10 3.53533456373e-10 
2.76863228622e-11 -1.88708852899e-10 -4.18904467278e-10 -6.20848871072e-10 -8.29303253843e-10 -9.91546582884e-10 -1.14428807374e-09 -1.23139566913e-09 -1.28141650724e-09 -1.26744660043e-09 -1.18256646148e-09 -1.07389629574e-09 -8.86773947703e-10 -7.12884388155e-10 -4.78421941214e-10 -2.65491428305e-10 -2.65299254392e-11 1.9879189627e-10 4.24333741193e-10 6.38833704075e-10 8.36113092151e-10 1.00953141589e-09 1.14971734766e-09 1.2414787125e-09 1.28257290467e-09 1.26201313097e-09 1.17713718757e-09 1.05126188883e-09 8.77651314549e-10 6.90249981238e-10 4.72992667299e-10 2.60057958848e-10 
2.35456451641e-11 -1.60244046126e-10 -3.56700180973e-10 -5.26569250638e-10 -7.01748346088e-10 -8.35524682723e-10 -9.60540713885e-10 -1.03106158368e-09 -1.06988074538e-09 -1.05881434951e-09 -9.89725294534e-10 -9.01464621727e-10 -7.47360100674e-10 -6.02871071085e-10 -4.06039849011e-10 -2.26994601997e-10 -2.29244781349e-11 1.67858298039e-10 3.60497111034e-10 5.40923130146e-10 7.06629425439e-10 8.49878562231e-10 9.64337643946e-10 1.03867583559e-09 1.07050191241e-09 1.05403205043e-09 9.85928364473e-10 8.84278789385e-10 7.41236687265e-10 5.85685238743e-10 4.0224291895e-10 2.22212302918e-10 
1.54099339038e-11 -1.02908056293e-10 -2.28422240302e-10 -3.37150388062e-10 -4.47215382353e-10 -5.31806747186e-10 -6.08240767818e-10 -6.52459778015e-10 -6.75053100893e-10 -6.68172046088e-10 -6.26242748011e-10 -5.70368943718e-10 -4.76055423605e-10 -3.83504595733e-10 -2.60378457031e-10 -1.45540265373e-10 -1.51002349329e-11 1.06954606888e-10 2.30790188744e-10 3.4513312339e-10 4.50312382019e-10 5.39789482514e-10 6.10608716261e-10 6.5650632861e-10 6.75362799864e-10 6.65351100834e-10 6.23874799569e-10 5.61160603049e-10 4.72339025998e-10 3.74296255064e-10 2.58010508589e-10 1.42719320119e-10 
1.16714442505e-11 -7.8685898667e-11 -1.75430282657e-10 -2.57993542216e-10 -3.42103396283e-10 -4.05622014434e-10 -4.63165630396e-10 -4.96046093095e-10 -5.12516609189e-10 -5.07524840667e-10 -4.75854881846e-10 -4.34385192927e-10 -3.62940830667e-10 -2.9334534929e-10 -1.9918124689e-10 -1.12039915349e-10 -1.1515066217e-11 8.15697716965e-11 1.76913850663e-10 2.63886659945e-10 3.44070448098e-10 4.11515132163e-10 4.64649198402e-10 4.98929966125e-10 5.12672987222e-10 5.05355456828e-10 4.7437131384e-10 4.27777586008e-10 3.60661022784e-10 2.86737742371e-10 1.97697678884e-10 1.0987053151e-10 
4.36553772698e-12 -2.84890613237e-11 -6.296825724e-11 -9.30074108858e-11 -1.22822167061e-10 -1.45925275136e-10 -1.6616801703e-10 -1.78114864722e-10 -1.83869786964e-10 -1.81980068132e-10 -1.70968272845e-10 -1.55694734405e-10 -1.30707539994e-10 -1.05161196485e-10 -7.19229979025e-11 -4.01410410695e-11 -4.3065358779e-12 2.94172735756e-11 6.35985491285e-11 9.49221844996e-11 1.23663289884e-10 1.4784004875e-10 1.66798308919e-10 1.79043076974e-10 1.83928788813e-10 1.81268228386e-10 1.70337980957e-10 1.53563588285e-10 1.29748413473e-10 1.03030050365e-10 7.1292706014e-11 3.94292013239e-11 
